 Entering Gaussian System, Link 0=g16
 Initial command:
 /hpc/sw/g16-A.03-avx//g16/l1.exe "/scratch-local/stretiak.4552719/stretiak/Gau-26348.inp" -scrdir="/scratch-local/stretiak.4552719/stretiak/"
 Entering Link 1 = /hpc/sw/g16-A.03-avx//g16/l1.exe PID=     26351.
  
 Copyright (c) 1988,1990,1992,1993,1995,1998,2003,2009,2016,
            Gaussian, Inc.  All Rights Reserved.
  
 This is part of the Gaussian(R) 16 program.  It is based on
 the Gaussian(R) 09 system (copyright 2009, Gaussian, Inc.),
 the Gaussian(R) 03 system (copyright 2003, Gaussian, Inc.),
 the Gaussian(R) 98 system (copyright 1998, Gaussian, Inc.),
 the Gaussian(R) 94 system (copyright 1995, Gaussian, Inc.),
 the Gaussian 92(TM) system (copyright 1992, Gaussian, Inc.),
 the Gaussian 90(TM) system (copyright 1990, Gaussian, Inc.),
 the Gaussian 88(TM) system (copyright 1988, Gaussian, Inc.),
 the Gaussian 86(TM) system (copyright 1986, Carnegie Mellon
 University), and the Gaussian 82(TM) system (copyright 1983,
 Carnegie Mellon University). Gaussian is a federally registered
 trademark of Gaussian, Inc.
  
 This software contains proprietary and confidential information,
 including trade secrets, belonging to Gaussian, Inc.
  
 This software is provided under written license and may be
 used, copied, transmitted, or stored only in accord with that
 written license.
  
 The following legend is applicable only to US Government
 contracts under FAR:
  
                    RESTRICTED RIGHTS LEGEND
  
 Use, reproduction and disclosure by the US Government is
 subject to restrictions as set forth in subparagraphs (a)
 and (c) of the Commercial Computer Software - Restricted
 Rights clause in FAR 52.227-19.
  
 Gaussian, Inc.
 340 Quinnipiac St., Bldg. 40, Wallingford CT 06492
  
  
 ---------------------------------------------------------------
 Warning -- This program may not be used in any manner that
 competes with the business of Gaussian, Inc. or will provide
 assistance to any competitor of Gaussian, Inc.  The licensee
 of this program is prohibited from giving any competitor of
 Gaussian, Inc. access to this program.  By using this program,
 the user acknowledges that Gaussian, Inc. is engaged in the
 business of creating and licensing software in the field of
 computational chemistry and represents and warrants to the
 licensee that it is not a competitor of Gaussian, Inc. and that
 it will not use this program in any manner prohibited above.
 ---------------------------------------------------------------
  

 Cite this work as:
 Gaussian 16, Revision A.03,
 M. J. Frisch, G. W. Trucks, H. B. Schlegel, G. E. Scuseria, 
 M. A. Robb, J. R. Cheeseman, G. Scalmani, V. Barone, 
 G. A. Petersson, H. Nakatsuji, X. Li, M. Caricato, A. V. Marenich, 
 J. Bloino, B. G. Janesko, R. Gomperts, B. Mennucci, H. P. Hratchian, 
 J. V. Ortiz, A. F. Izmaylov, J. L. Sonnenberg, D. Williams-Young, 
 F. Ding, F. Lipparini, F. Egidi, J. Goings, B. Peng, A. Petrone, 
 T. Henderson, D. Ranasinghe, V. G. Zakrzewski, J. Gao, N. Rega, 
 G. Zheng, W. Liang, M. Hada, M. Ehara, K. Toyota, R. Fukuda, 
 J. Hasegawa, M. Ishida, T. Nakajima, Y. Honda, O. Kitao, H. Nakai, 
 T. Vreven, K. Throssell, J. A. Montgomery, Jr., J. E. Peralta, 
 F. Ogliaro, M. J. Bearpark, J. J. Heyd, E. N. Brothers, K. N. Kudin, 
 V. N. Staroverov, T. A. Keith, R. Kobayashi, J. Normand, 
 K. Raghavachari, A. P. Rendell, J. C. Burant, S. S. Iyengar, 
 J. Tomasi, M. Cossi, J. M. Millam, M. Klene, C. Adamo, R. Cammi, 
 J. W. Ochterski, R. L. Martin, K. Morokuma, O. Farkas, 
 J. B. Foresman, and D. J. Fox, Gaussian, Inc., Wallingford CT, 2016.
 
 ******************************************
 Gaussian 16:  ES64L-G16RevA.03 25-Dec-2016
                 5-Aug-2018 
 ******************************************
 %chk=isocage_311.chk
 %NProcShared=24
 Will use up to   24 processors via shared memory.
 %LindaWorkers=tcn1006
 %Mem=2900MB
 SetLPE:  input flags="-vv -opt "Tsnet.Node.lindarsharg: ssh" "
 SetLPE:    new flags="-vv -opt "Tsnet.Node.lindarsharg: ssh" -opt 'Tsnet.Node.lindarsharg: ssh'  -nodelist 'tcn1006' -env GAUSS_MDEF=380108800 -env GAUSS_EXEDIR="/hpc/sw/g16-A.03-avx//g16/bsd:/hpc/sw/g16-A.03-avx//g16""
 Will use up to    1 processors via Linda.
 --------------------------------------------------------------------
 # freq opt b3lyp/6-311++G** EmpiricalDispersion=GD3BJ symmetry=loose
 --------------------------------------------------------------------
 1/18=20,19=15,26=3,38=1/1,3;
 2/9=110,12=2,17=4,18=3,40=1/2;
 3/5=4,6=6,7=1111,11=2,25=1,30=1,71=1,74=-5,124=41/1,2,3;
 4//1;
 5/5=2,38=5/2;
 6/7=2,8=2,9=2,10=2,28=1/1;
 7//1,2,3,16;
 1/18=20,19=15,26=3/3(2);
 2/9=110/2;
 99//99;
 2/9=110/2;
 3/5=4,6=6,7=1111,11=2,25=1,30=1,71=1,74=-5,124=41/1,2,3;
 4/5=5,16=3,69=1/1;
 5/5=2,38=5/2;
 7//1,2,3,16;
 1/18=20,19=15,26=3/3(-5);
 2/9=110/2;
 6/7=2,8=2,9=2,10=2,19=2,28=1/1;
 99/9=1/99;
 -------------------
 Title Card Required
 -------------------
 Symbolic Z-matrix:
 Charge =  0 Multiplicity = 1
 C                     0.        2.91711   0.72094 
 C                     0.        3.7689   -0.41262 
 C                     0.        5.16664  -0.2417 
 C                     0.        5.68119   1.04671 
 C                     0.        4.82088   2.16594 
 C                     0.        3.43742   2.02316 
 C                     0.        1.64369  -1.14367 
 C                     0.        2.94696  -1.59576 
 H                     0.        5.82994  -1.1023 
 H                     0.        6.75604   1.20075 
 H                     0.        5.24819   3.16465 
 H                     0.        2.7987    2.89973 
 P                     0.        0.       -1.89237 
 C                    -1.42348  -0.82185  -1.14367 
 C                    -2.55215  -1.47348  -1.59576 
 C                    -2.52629  -1.45856   0.72094 
 C                    -3.26397  -1.88445  -0.41262 
 C                    -2.97689  -1.71871   2.02316 
 C                    -4.47444  -2.58332  -0.2417 
 C                    -4.17501  -2.41044   2.16594 
 H                    -2.42374  -1.39935   2.89973 
 C                    -4.92006  -2.8406    1.04671 
 H                    -5.04888  -2.91497  -1.1023 
 H                    -4.54507  -2.6241    3.16465 
 H                    -5.8509   -3.37802   1.20075 
 C                     1.42348  -0.82185  -1.14367 
 C                     2.55215  -1.47348  -1.59576 
 C                     2.52629  -1.45856   0.72094 
 C                     3.26397  -1.88445  -0.41262 
 C                     2.97689  -1.71871   2.02316 
 C                     4.47444  -2.58332  -0.2417 
 C                     4.17501  -2.41044   2.16594 
 H                     2.42374  -1.39935   2.89973 
 C                     4.92006  -2.8406    1.04671 
 H                     5.04888  -2.91497  -1.1023 
 H                     4.54507  -2.6241    3.16465 
 H                     5.8509   -3.37802   1.20075 
 Si                    0.        0.        1.07379 
 N                     1.36898  -0.79038   0.27607 
 N                     0.        1.58076   0.27607 
 C                     3.01007  -1.73786  -2.99602 
 H                     2.3363   -1.34887  -3.7614 
 H                     4.00138  -1.31699  -3.16228 
 H                     3.14123  -2.8068   -3.16228 
 C                     0.        3.47572  -2.99602 
 H                    -0.86014   4.12379  -3.16228 
 H                     0.86014   4.12379  -3.16228 
 H                     0.        2.69773  -3.7614 
 C                    -3.01007  -1.73786  -2.99602 
 H                    -4.00138  -1.31699  -3.16228 
 H                    -2.3363   -1.34887  -3.7614 
 H                    -3.14123  -2.8068   -3.16228 
 C                     0.        0.        2.92169 
 H                     0.88954   0.51357   3.31019 
 H                    -0.88954   0.51357   3.31019 
 H                     0.       -1.02715   3.31019 
 N                    -1.36898  -0.79038   0.27607 
 

 GradGradGradGradGradGradGradGradGradGradGradGradGradGradGradGradGradGrad
 Berny optimization.
 Initialization pass.
                           ----------------------------
                           !    Initial Parameters    !
                           ! (Angstroms and Degrees)  !
 --------------------------                            --------------------------
 ! Name  Definition              Value          Derivative Info.                !
 --------------------------------------------------------------------------------
 ! R1    R(1,2)                  1.4179         estimate D2E/DX2                !
 ! R2    R(1,6)                  1.4023         estimate D2E/DX2                !
 ! R3    R(1,40)                 1.4085         estimate D2E/DX2                !
 ! R4    R(2,3)                  1.4082         estimate D2E/DX2                !
 ! R5    R(2,8)                  1.4406         estimate D2E/DX2                !
 ! R6    R(3,4)                  1.3874         estimate D2E/DX2                !
 ! R7    R(3,9)                  1.0866         estimate D2E/DX2                !
 ! R8    R(4,5)                  1.4117         estimate D2E/DX2                !
 ! R9    R(4,10)                 1.0858         estimate D2E/DX2                !
 ! R10   R(5,6)                  1.3908         estimate D2E/DX2                !
 ! R11   R(5,11)                 1.0863         estimate D2E/DX2                !
 ! R12   R(6,12)                 1.0846         estimate D2E/DX2                !
 ! R13   R(7,8)                  1.3795         estimate D2E/DX2                !
 ! R14   R(7,13)                 1.8062         estimate D2E/DX2                !
 ! R15   R(7,40)                 1.4211         estimate D2E/DX2                !
 ! R16   R(8,45)                 1.4968         estimate D2E/DX2                !
 ! R17   R(13,14)                1.8062         estimate D2E/DX2                !
 ! R18   R(13,26)                1.8062         estimate D2E/DX2                !
 ! R19   R(14,15)                1.3795         estimate D2E/DX2                !
 ! R20   R(14,57)                1.4211         estimate D2E/DX2                !
 ! R21   R(15,17)                1.4406         estimate D2E/DX2                !
 ! R22   R(15,49)                1.4968         estimate D2E/DX2                !
 ! R23   R(16,17)                1.4179         estimate D2E/DX2                !
 ! R24   R(16,18)                1.4023         estimate D2E/DX2                !
 ! R25   R(16,57)                1.4085         estimate D2E/DX2                !
 ! R26   R(17,19)                1.4082         estimate D2E/DX2                !
 ! R27   R(18,20)                1.3908         estimate D2E/DX2                !
 ! R28   R(18,21)                1.0846         estimate D2E/DX2                !
 ! R29   R(19,22)                1.3874         estimate D2E/DX2                !
 ! R30   R(19,23)                1.0866         estimate D2E/DX2                !
 ! R31   R(20,22)                1.4117         estimate D2E/DX2                !
 ! R32   R(20,24)                1.0863         estimate D2E/DX2                !
 ! R33   R(22,25)                1.0858         estimate D2E/DX2                !
 ! R34   R(26,27)                1.3795         estimate D2E/DX2                !
 ! R35   R(26,39)                1.4211         estimate D2E/DX2                !
 ! R36   R(27,29)                1.4406         estimate D2E/DX2                !
 ! R37   R(27,41)                1.4968         estimate D2E/DX2                !
 ! R38   R(28,29)                1.4179         estimate D2E/DX2                !
 ! R39   R(28,30)                1.4023         estimate D2E/DX2                !
 ! R40   R(28,39)                1.4085         estimate D2E/DX2                !
 ! R41   R(29,31)                1.4082         estimate D2E/DX2                !
 ! R42   R(30,32)                1.3908         estimate D2E/DX2                !
 ! R43   R(30,33)                1.0846         estimate D2E/DX2                !
 ! R44   R(31,34)                1.3874         estimate D2E/DX2                !
 ! R45   R(31,35)                1.0866         estimate D2E/DX2                !
 ! R46   R(32,34)                1.4117         estimate D2E/DX2                !
 ! R47   R(32,36)                1.0863         estimate D2E/DX2                !
 ! R48   R(34,37)                1.0858         estimate D2E/DX2                !
 ! R49   R(38,39)                1.7706         estimate D2E/DX2                !
 ! R50   R(38,40)                1.7706         estimate D2E/DX2                !
 ! R51   R(38,53)                1.8479         estimate D2E/DX2                !
 ! R52   R(38,57)                1.7706         estimate D2E/DX2                !
 ! R53   R(41,42)                1.0914         estimate D2E/DX2                !
 ! R54   R(41,43)                1.0897         estimate D2E/DX2                !
 ! R55   R(41,44)                1.0897         estimate D2E/DX2                !
 ! R56   R(45,46)                1.0897         estimate D2E/DX2                !
 ! R57   R(45,47)                1.0897         estimate D2E/DX2                !
 ! R58   R(45,48)                1.0914         estimate D2E/DX2                !
 ! R59   R(49,50)                1.0897         estimate D2E/DX2                !
 ! R60   R(49,51)                1.0914         estimate D2E/DX2                !
 ! R61   R(49,52)                1.0897         estimate D2E/DX2                !
 ! R62   R(53,54)                1.0982         estimate D2E/DX2                !
 ! R63   R(53,55)                1.0982         estimate D2E/DX2                !
 ! R64   R(53,56)                1.0982         estimate D2E/DX2                !
 ! A1    A(2,1,6)              121.2981         estimate D2E/DX2                !
 ! A2    A(2,1,40)             108.5098         estimate D2E/DX2                !
 ! A3    A(6,1,40)             130.1921         estimate D2E/DX2                !
 ! A4    A(1,2,3)              119.9508         estimate D2E/DX2                !
 ! A5    A(1,2,8)              108.2895         estimate D2E/DX2                !
 ! A6    A(3,2,8)              131.7596         estimate D2E/DX2                !
 ! A7    A(2,3,4)              118.7418         estimate D2E/DX2                !
 ! A8    A(2,3,9)              120.6513         estimate D2E/DX2                !
 ! A9    A(4,3,9)              120.6069         estimate D2E/DX2                !
 ! A10   A(3,4,5)              120.6816         estimate D2E/DX2                !
 ! A11   A(3,4,10)             119.9259         estimate D2E/DX2                !
 ! A12   A(5,4,10)             119.3925         estimate D2E/DX2                !
 ! A13   A(4,5,6)              121.6559         estimate D2E/DX2                !
 ! A14   A(4,5,11)             119.2876         estimate D2E/DX2                !
 ! A15   A(6,5,11)             119.0565         estimate D2E/DX2                !
 ! A16   A(1,6,5)              117.6717         estimate D2E/DX2                !
 ! A17   A(1,6,12)             122.1412         estimate D2E/DX2                !
 ! A18   A(5,6,12)             120.1871         estimate D2E/DX2                !
 ! A19   A(8,7,13)             136.3798         estimate D2E/DX2                !
 ! A20   A(8,7,40)             111.6691         estimate D2E/DX2                !
 ! A21   A(13,7,40)            111.9511         estimate D2E/DX2                !
 ! A22   A(2,8,7)              105.6571         estimate D2E/DX2                !
 ! A23   A(2,8,45)             124.5247         estimate D2E/DX2                !
 ! A24   A(7,8,45)             129.8183         estimate D2E/DX2                !
 ! A25   A(7,13,14)            104.0198         estimate D2E/DX2                !
 ! A26   A(7,13,26)            104.0198         estimate D2E/DX2                !
 ! A27   A(14,13,26)           104.0198         estimate D2E/DX2                !
 ! A28   A(13,14,15)           136.3798         estimate D2E/DX2                !
 ! A29   A(13,14,57)           111.9511         estimate D2E/DX2                !
 ! A30   A(15,14,57)           111.6691         estimate D2E/DX2                !
 ! A31   A(14,15,17)           105.6571         estimate D2E/DX2                !
 ! A32   A(14,15,49)           129.8183         estimate D2E/DX2                !
 ! A33   A(17,15,49)           124.5247         estimate D2E/DX2                !
 ! A34   A(17,16,18)           121.2981         estimate D2E/DX2                !
 ! A35   A(17,16,57)           108.5098         estimate D2E/DX2                !
 ! A36   A(18,16,57)           130.1921         estimate D2E/DX2                !
 ! A37   A(15,17,16)           108.2895         estimate D2E/DX2                !
 ! A38   A(15,17,19)           131.7596         estimate D2E/DX2                !
 ! A39   A(16,17,19)           119.9508         estimate D2E/DX2                !
 ! A40   A(16,18,20)           117.6717         estimate D2E/DX2                !
 ! A41   A(16,18,21)           122.1412         estimate D2E/DX2                !
 ! A42   A(20,18,21)           120.1871         estimate D2E/DX2                !
 ! A43   A(17,19,22)           118.7418         estimate D2E/DX2                !
 ! A44   A(17,19,23)           120.6513         estimate D2E/DX2                !
 ! A45   A(22,19,23)           120.6069         estimate D2E/DX2                !
 ! A46   A(18,20,22)           121.6559         estimate D2E/DX2                !
 ! A47   A(18,20,24)           119.0565         estimate D2E/DX2                !
 ! A48   A(22,20,24)           119.2876         estimate D2E/DX2                !
 ! A49   A(19,22,20)           120.6816         estimate D2E/DX2                !
 ! A50   A(19,22,25)           119.9259         estimate D2E/DX2                !
 ! A51   A(20,22,25)           119.3925         estimate D2E/DX2                !
 ! A52   A(13,26,27)           136.3798         estimate D2E/DX2                !
 ! A53   A(13,26,39)           111.9511         estimate D2E/DX2                !
 ! A54   A(27,26,39)           111.6691         estimate D2E/DX2                !
 ! A55   A(26,27,29)           105.6571         estimate D2E/DX2                !
 ! A56   A(26,27,41)           129.8183         estimate D2E/DX2                !
 ! A57   A(29,27,41)           124.5247         estimate D2E/DX2                !
 ! A58   A(29,28,30)           121.2981         estimate D2E/DX2                !
 ! A59   A(29,28,39)           108.5098         estimate D2E/DX2                !
 ! A60   A(30,28,39)           130.1921         estimate D2E/DX2                !
 ! A61   A(27,29,28)           108.2895         estimate D2E/DX2                !
 ! A62   A(27,29,31)           131.7596         estimate D2E/DX2                !
 ! A63   A(28,29,31)           119.9508         estimate D2E/DX2                !
 ! A64   A(28,30,32)           117.6717         estimate D2E/DX2                !
 ! A65   A(28,30,33)           122.1412         estimate D2E/DX2                !
 ! A66   A(32,30,33)           120.1871         estimate D2E/DX2                !
 ! A67   A(29,31,34)           118.7418         estimate D2E/DX2                !
 ! A68   A(29,31,35)           120.6513         estimate D2E/DX2                !
 ! A69   A(34,31,35)           120.6069         estimate D2E/DX2                !
 ! A70   A(30,32,34)           121.6559         estimate D2E/DX2                !
 ! A71   A(30,32,36)           119.0565         estimate D2E/DX2                !
 ! A72   A(34,32,36)           119.2876         estimate D2E/DX2                !
 ! A73   A(31,34,32)           120.6816         estimate D2E/DX2                !
 ! A74   A(31,34,37)           119.9259         estimate D2E/DX2                !
 ! A75   A(32,34,37)           119.3925         estimate D2E/DX2                !
 ! A76   A(39,38,40)           101.2761         estimate D2E/DX2                !
 ! A77   A(39,38,53)           116.7776         estimate D2E/DX2                !
 ! A78   A(39,38,57)           101.2761         estimate D2E/DX2                !
 ! A79   A(40,38,53)           116.7776         estimate D2E/DX2                !
 ! A80   A(40,38,57)           101.2761         estimate D2E/DX2                !
 ! A81   A(53,38,57)           116.7776         estimate D2E/DX2                !
 ! A82   A(26,39,28)           105.8745         estimate D2E/DX2                !
 ! A83   A(26,39,38)           119.3157         estimate D2E/DX2                !
 ! A84   A(28,39,38)           134.8098         estimate D2E/DX2                !
 ! A85   A(1,40,7)             105.8745         estimate D2E/DX2                !
 ! A86   A(1,40,38)            134.8098         estimate D2E/DX2                !
 ! A87   A(7,40,38)            119.3157         estimate D2E/DX2                !
 ! A88   A(27,41,42)           113.8443         estimate D2E/DX2                !
 ! A89   A(27,41,43)           110.66           estimate D2E/DX2                !
 ! A90   A(27,41,44)           110.66           estimate D2E/DX2                !
 ! A91   A(42,41,43)           108.4788         estimate D2E/DX2                !
 ! A92   A(42,41,44)           108.4788         estimate D2E/DX2                !
 ! A93   A(43,41,44)           104.2458         estimate D2E/DX2                !
 ! A94   A(8,45,46)            110.66           estimate D2E/DX2                !
 ! A95   A(8,45,47)            110.66           estimate D2E/DX2                !
 ! A96   A(8,45,48)            113.8443         estimate D2E/DX2                !
 ! A97   A(46,45,47)           104.2458         estimate D2E/DX2                !
 ! A98   A(46,45,48)           108.4788         estimate D2E/DX2                !
 ! A99   A(47,45,48)           108.4788         estimate D2E/DX2                !
 ! A100  A(15,49,50)           110.66           estimate D2E/DX2                !
 ! A101  A(15,49,51)           113.8443         estimate D2E/DX2                !
 ! A102  A(15,49,52)           110.66           estimate D2E/DX2                !
 ! A103  A(50,49,51)           108.4788         estimate D2E/DX2                !
 ! A104  A(50,49,52)           104.2458         estimate D2E/DX2                !
 ! A105  A(51,49,52)           108.4788         estimate D2E/DX2                !
 ! A106  A(38,53,54)           110.7182         estimate D2E/DX2                !
 ! A107  A(38,53,55)           110.7182         estimate D2E/DX2                !
 ! A108  A(38,53,56)           110.7182         estimate D2E/DX2                !
 ! A109  A(54,53,55)           108.196          estimate D2E/DX2                !
 ! A110  A(54,53,56)           108.196          estimate D2E/DX2                !
 ! A111  A(55,53,56)           108.196          estimate D2E/DX2                !
 ! A112  A(14,57,16)           105.8745         estimate D2E/DX2                !
 ! A113  A(14,57,38)           119.3157         estimate D2E/DX2                !
 ! A114  A(16,57,38)           134.8098         estimate D2E/DX2                !
 ! D1    D(6,1,2,3)              0.0            estimate D2E/DX2                !
 ! D2    D(6,1,2,8)            180.0            estimate D2E/DX2                !
 ! D3    D(40,1,2,3)           180.0            estimate D2E/DX2                !
 ! D4    D(40,1,2,8)             0.0            estimate D2E/DX2                !
 ! D5    D(2,1,6,5)              0.0            estimate D2E/DX2                !
 ! D6    D(2,1,6,12)           180.0            estimate D2E/DX2                !
 ! D7    D(40,1,6,5)           180.0            estimate D2E/DX2                !
 ! D8    D(40,1,6,12)            0.0            estimate D2E/DX2                !
 ! D9    D(2,1,40,7)             0.0            estimate D2E/DX2                !
 ! D10   D(2,1,40,38)          180.0            estimate D2E/DX2                !
 ! D11   D(6,1,40,7)           180.0            estimate D2E/DX2                !
 ! D12   D(6,1,40,38)            0.0            estimate D2E/DX2                !
 ! D13   D(1,2,3,4)              0.0            estimate D2E/DX2                !
 ! D14   D(1,2,3,9)            180.0            estimate D2E/DX2                !
 ! D15   D(8,2,3,4)            180.0            estimate D2E/DX2                !
 ! D16   D(8,2,3,9)              0.0            estimate D2E/DX2                !
 ! D17   D(1,2,8,7)              0.0            estimate D2E/DX2                !
 ! D18   D(1,2,8,45)           180.0            estimate D2E/DX2                !
 ! D19   D(3,2,8,7)            180.0            estimate D2E/DX2                !
 ! D20   D(3,2,8,45)             0.0            estimate D2E/DX2                !
 ! D21   D(2,3,4,5)              0.0            estimate D2E/DX2                !
 ! D22   D(2,3,4,10)           180.0            estimate D2E/DX2                !
 ! D23   D(9,3,4,5)            180.0            estimate D2E/DX2                !
 ! D24   D(9,3,4,10)             0.0            estimate D2E/DX2                !
 ! D25   D(3,4,5,6)              0.0            estimate D2E/DX2                !
 ! D26   D(3,4,5,11)           180.0            estimate D2E/DX2                !
 ! D27   D(10,4,5,6)           180.0            estimate D2E/DX2                !
 ! D28   D(10,4,5,11)            0.0            estimate D2E/DX2                !
 ! D29   D(4,5,6,1)              0.0            estimate D2E/DX2                !
 ! D30   D(4,5,6,12)           180.0            estimate D2E/DX2                !
 ! D31   D(11,5,6,1)           180.0            estimate D2E/DX2                !
 ! D32   D(11,5,6,12)            0.0            estimate D2E/DX2                !
 ! D33   D(13,7,8,2)           180.0            estimate D2E/DX2                !
 ! D34   D(13,7,8,45)            0.0            estimate D2E/DX2                !
 ! D35   D(40,7,8,2)             0.0            estimate D2E/DX2                !
 ! D36   D(40,7,8,45)          180.0            estimate D2E/DX2                !
 ! D37   D(8,7,13,14)         -125.6773         estimate D2E/DX2                !
 ! D38   D(8,7,13,26)          125.6773         estimate D2E/DX2                !
 ! D39   D(40,7,13,14)          54.3227         estimate D2E/DX2                !
 ! D40   D(40,7,13,26)         -54.3227         estimate D2E/DX2                !
 ! D41   D(8,7,40,1)             0.0            estimate D2E/DX2                !
 ! D42   D(8,7,40,38)          180.0            estimate D2E/DX2                !
 ! D43   D(13,7,40,1)          180.0            estimate D2E/DX2                !
 ! D44   D(13,7,40,38)           0.0            estimate D2E/DX2                !
 ! D45   D(2,8,45,46)          -57.5201         estimate D2E/DX2                !
 ! D46   D(2,8,45,47)           57.5201         estimate D2E/DX2                !
 ! D47   D(2,8,45,48)          180.0            estimate D2E/DX2                !
 ! D48   D(7,8,45,46)          122.4799         estimate D2E/DX2                !
 ! D49   D(7,8,45,47)         -122.4799         estimate D2E/DX2                !
 ! D50   D(7,8,45,48)            0.0            estimate D2E/DX2                !
 ! D51   D(7,13,14,15)         125.6773         estimate D2E/DX2                !
 ! D52   D(7,13,14,57)         -54.3227         estimate D2E/DX2                !
 ! D53   D(26,13,14,15)       -125.6773         estimate D2E/DX2                !
 ! D54   D(26,13,14,57)         54.3227         estimate D2E/DX2                !
 ! D55   D(7,13,26,27)        -125.6773         estimate D2E/DX2                !
 ! D56   D(7,13,26,39)          54.3227         estimate D2E/DX2                !
 ! D57   D(14,13,26,27)        125.6773         estimate D2E/DX2                !
 ! D58   D(14,13,26,39)        -54.3227         estimate D2E/DX2                !
 ! D59   D(13,14,15,17)        180.0            estimate D2E/DX2                !
 ! D60   D(13,14,15,49)          0.0            estimate D2E/DX2                !
 ! D61   D(57,14,15,17)          0.0            estimate D2E/DX2                !
 ! D62   D(57,14,15,49)        180.0            estimate D2E/DX2                !
 ! D63   D(13,14,57,16)        180.0            estimate D2E/DX2                !
 ! D64   D(13,14,57,38)          0.0            estimate D2E/DX2                !
 ! D65   D(15,14,57,16)          0.0            estimate D2E/DX2                !
 ! D66   D(15,14,57,38)        180.0            estimate D2E/DX2                !
 ! D67   D(14,15,17,16)          0.0            estimate D2E/DX2                !
 ! D68   D(14,15,17,19)        180.0            estimate D2E/DX2                !
 ! D69   D(49,15,17,16)        180.0            estimate D2E/DX2                !
 ! D70   D(49,15,17,19)          0.0            estimate D2E/DX2                !
 ! D71   D(14,15,49,50)       -122.4799         estimate D2E/DX2                !
 ! D72   D(14,15,49,51)          0.0            estimate D2E/DX2                !
 ! D73   D(14,15,49,52)        122.4799         estimate D2E/DX2                !
 ! D74   D(17,15,49,50)         57.5201         estimate D2E/DX2                !
 ! D75   D(17,15,49,51)        180.0            estimate D2E/DX2                !
 ! D76   D(17,15,49,52)        -57.5201         estimate D2E/DX2                !
 ! D77   D(18,16,17,15)        180.0            estimate D2E/DX2                !
 ! D78   D(18,16,17,19)          0.0            estimate D2E/DX2                !
 ! D79   D(57,16,17,15)          0.0            estimate D2E/DX2                !
 ! D80   D(57,16,17,19)        180.0            estimate D2E/DX2                !
 ! D81   D(17,16,18,20)          0.0            estimate D2E/DX2                !
 ! D82   D(17,16,18,21)        180.0            estimate D2E/DX2                !
 ! D83   D(57,16,18,20)        180.0            estimate D2E/DX2                !
 ! D84   D(57,16,18,21)          0.0            estimate D2E/DX2                !
 ! D85   D(17,16,57,14)          0.0            estimate D2E/DX2                !
 ! D86   D(17,16,57,38)        180.0            estimate D2E/DX2                !
 ! D87   D(18,16,57,14)        180.0            estimate D2E/DX2                !
 ! D88   D(18,16,57,38)          0.0            estimate D2E/DX2                !
 ! D89   D(15,17,19,22)        180.0            estimate D2E/DX2                !
 ! D90   D(15,17,19,23)          0.0            estimate D2E/DX2                !
 ! D91   D(16,17,19,22)          0.0            estimate D2E/DX2                !
 ! D92   D(16,17,19,23)        180.0            estimate D2E/DX2                !
 ! D93   D(16,18,20,22)          0.0            estimate D2E/DX2                !
 ! D94   D(16,18,20,24)        180.0            estimate D2E/DX2                !
 ! D95   D(21,18,20,22)        180.0            estimate D2E/DX2                !
 ! D96   D(21,18,20,24)          0.0            estimate D2E/DX2                !
 ! D97   D(17,19,22,20)          0.0            estimate D2E/DX2                !
 ! D98   D(17,19,22,25)        180.0            estimate D2E/DX2                !
 ! D99   D(23,19,22,20)        180.0            estimate D2E/DX2                !
 ! D100  D(23,19,22,25)          0.0            estimate D2E/DX2                !
 ! D101  D(18,20,22,19)          0.0            estimate D2E/DX2                !
 ! D102  D(18,20,22,25)       -180.0            estimate D2E/DX2                !
 ! D103  D(24,20,22,19)        180.0            estimate D2E/DX2                !
 ! D104  D(24,20,22,25)          0.0            estimate D2E/DX2                !
 ! D105  D(13,26,27,29)        180.0            estimate D2E/DX2                !
 ! D106  D(13,26,27,41)          0.0            estimate D2E/DX2                !
 ! D107  D(39,26,27,29)          0.0            estimate D2E/DX2                !
 ! D108  D(39,26,27,41)        180.0            estimate D2E/DX2                !
 ! D109  D(13,26,39,28)        180.0            estimate D2E/DX2                !
 ! D110  D(13,26,39,38)          0.0            estimate D2E/DX2                !
 ! D111  D(27,26,39,28)          0.0            estimate D2E/DX2                !
 ! D112  D(27,26,39,38)        180.0            estimate D2E/DX2                !
 ! D113  D(26,27,29,28)          0.0            estimate D2E/DX2                !
 ! D114  D(26,27,29,31)        180.0            estimate D2E/DX2                !
 ! D115  D(41,27,29,28)        180.0            estimate D2E/DX2                !
 ! D116  D(41,27,29,31)          0.0            estimate D2E/DX2                !
 ! D117  D(26,27,41,42)          0.0            estimate D2E/DX2                !
 ! D118  D(26,27,41,43)        122.4799         estimate D2E/DX2                !
 ! D119  D(26,27,41,44)       -122.4799         estimate D2E/DX2                !
 ! D120  D(29,27,41,42)        180.0            estimate D2E/DX2                !
 ! D121  D(29,27,41,43)        -57.5201         estimate D2E/DX2                !
 ! D122  D(29,27,41,44)         57.5201         estimate D2E/DX2                !
 ! D123  D(30,28,29,27)        180.0            estimate D2E/DX2                !
 ! D124  D(30,28,29,31)          0.0            estimate D2E/DX2                !
 ! D125  D(39,28,29,27)          0.0            estimate D2E/DX2                !
 ! D126  D(39,28,29,31)        180.0            estimate D2E/DX2                !
 ! D127  D(29,28,30,32)          0.0            estimate D2E/DX2                !
 ! D128  D(29,28,30,33)        180.0            estimate D2E/DX2                !
 ! D129  D(39,28,30,32)        180.0            estimate D2E/DX2                !
 ! D130  D(39,28,30,33)          0.0            estimate D2E/DX2                !
 ! D131  D(29,28,39,26)          0.0            estimate D2E/DX2                !
 ! D132  D(29,28,39,38)        180.0            estimate D2E/DX2                !
 ! D133  D(30,28,39,26)        180.0            estimate D2E/DX2                !
 ! D134  D(30,28,39,38)          0.0            estimate D2E/DX2                !
 ! D135  D(27,29,31,34)        180.0            estimate D2E/DX2                !
 ! D136  D(27,29,31,35)          0.0            estimate D2E/DX2                !
 ! D137  D(28,29,31,34)          0.0            estimate D2E/DX2                !
 ! D138  D(28,29,31,35)        180.0            estimate D2E/DX2                !
 ! D139  D(28,30,32,34)          0.0            estimate D2E/DX2                !
 ! D140  D(28,30,32,36)        180.0            estimate D2E/DX2                !
 ! D141  D(33,30,32,34)       -180.0            estimate D2E/DX2                !
 ! D142  D(33,30,32,36)          0.0            estimate D2E/DX2                !
 ! D143  D(29,31,34,32)          0.0            estimate D2E/DX2                !
 ! D144  D(29,31,34,37)        180.0            estimate D2E/DX2                !
 ! D145  D(35,31,34,32)        180.0            estimate D2E/DX2                !
 ! D146  D(35,31,34,37)          0.0            estimate D2E/DX2                !
 ! D147  D(30,32,34,31)          0.0            estimate D2E/DX2                !
 ! D148  D(30,32,34,37)        180.0            estimate D2E/DX2                !
 ! D149  D(36,32,34,31)        180.0            estimate D2E/DX2                !
 ! D150  D(36,32,34,37)          0.0            estimate D2E/DX2                !
 ! D151  D(40,38,39,26)        -52.0338         estimate D2E/DX2                !
 ! D152  D(40,38,39,28)        127.9662         estimate D2E/DX2                !
 ! D153  D(53,38,39,26)        180.0            estimate D2E/DX2                !
 ! D154  D(53,38,39,28)          0.0            estimate D2E/DX2                !
 ! D155  D(57,38,39,26)         52.0338         estimate D2E/DX2                !
 ! D156  D(57,38,39,28)       -127.9662         estimate D2E/DX2                !
 ! D157  D(39,38,40,1)        -127.9662         estimate D2E/DX2                !
 ! D158  D(39,38,40,7)          52.0338         estimate D2E/DX2                !
 ! D159  D(53,38,40,1)           0.0            estimate D2E/DX2                !
 ! D160  D(53,38,40,7)         180.0            estimate D2E/DX2                !
 ! D161  D(57,38,40,1)         127.9662         estimate D2E/DX2                !
 ! D162  D(57,38,40,7)         -52.0338         estimate D2E/DX2                !
 ! D163  D(39,38,53,54)         60.0            estimate D2E/DX2                !
 ! D164  D(39,38,53,55)        180.0            estimate D2E/DX2                !
 ! D165  D(39,38,53,56)        -60.0            estimate D2E/DX2                !
 ! D166  D(40,38,53,54)        -60.0            estimate D2E/DX2                !
 ! D167  D(40,38,53,55)         60.0            estimate D2E/DX2                !
 ! D168  D(40,38,53,56)        180.0            estimate D2E/DX2                !
 ! D169  D(57,38,53,54)        180.0            estimate D2E/DX2                !
 ! D170  D(57,38,53,55)        -60.0            estimate D2E/DX2                !
 ! D171  D(57,38,53,56)         60.0            estimate D2E/DX2                !
 ! D172  D(39,38,57,14)        -52.0338         estimate D2E/DX2                !
 ! D173  D(39,38,57,16)        127.9662         estimate D2E/DX2                !
 ! D174  D(40,38,57,14)         52.0338         estimate D2E/DX2                !
 ! D175  D(40,38,57,16)       -127.9662         estimate D2E/DX2                !
 ! D176  D(53,38,57,14)        180.0            estimate D2E/DX2                !
 ! D177  D(53,38,57,16)          0.0            estimate D2E/DX2                !
 --------------------------------------------------------------------------------
 Trust Radius=3.00D-01 FncErr=1.00D-07 GrdErr=1.00D-06 EigMax=2.50D+02 EigMin=1.00D-04
 Number of steps in this run=    342 maximum allowed number of steps=    342.
 GradGradGradGradGradGradGradGradGradGradGradGradGradGradGradGradGradGrad

 Stoichiometry    C28H24N3PSi
 Framework group  C3V[C3(CSiP),3SGV(C9H6N),X(H6)]
 Deg. of freedom    37
 Full point group                 C3V     NOp   6
 Largest Abelian subgroup         CS      NOp   2
 Largest concise Abelian subgroup CS      NOp   2
                         Standard orientation:                         
 ---------------------------------------------------------------------
 Center     Atomic      Atomic             Coordinates (Angstroms)
 Number     Number       Type             X           Y           Z
 ---------------------------------------------------------------------
      1          6           0        0.000000    2.917111   -0.719527
      2          6           0        0.000000    3.768903    0.414030
      3          6           0        0.000000    5.166643    0.243113
      4          6           0        0.000000    5.681194   -1.045297
      5          6           0        0.000000    4.820883   -2.164526
      6          6           0        0.000000    3.437420   -2.021747
      7          6           0        0.000000    1.643692    1.145084
      8          6           0        0.000000    2.946964    1.597171
      9          1           0        0.000000    5.829942    1.103711
     10          1           0        0.000000    6.756038   -1.199335
     11          1           0        0.000000    5.248193   -3.163234
     12          1           0        0.000000    2.798697   -2.898319
     13         15           0        0.000000    0.000000    1.893783
     14          6           0        1.423479   -0.821846    1.145084
     15          6           0        2.552146   -1.473482    1.597171
     16          6           0        2.526292   -1.458556   -0.719527
     17          6           0        3.263966   -1.884452    0.414030
     18          6           0        2.976893   -1.718710   -2.021747
     19          6           0        4.474444   -2.583322    0.243113
     20          6           0        4.175007   -2.410442   -2.164526
     21          1           0        2.423743   -1.399348   -2.898319
     22          6           0        4.920059   -2.840597   -1.045297
     23          1           0        5.048877   -2.914971    1.103711
     24          1           0        4.545068   -2.624096   -3.163234
     25          1           0        5.850901   -3.378019   -1.199335
     26          6           0       -1.423479   -0.821846    1.145084
     27          6           0       -2.552146   -1.473482    1.597171
     28          6           0       -2.526292   -1.458556   -0.719527
     29          6           0       -3.263966   -1.884452    0.414030
     30          6           0       -2.976893   -1.718710   -2.021747
     31          6           0       -4.474444   -2.583322    0.243113
     32          6           0       -4.175007   -2.410442   -2.164526
     33          1           0       -2.423743   -1.399348   -2.898319
     34          6           0       -4.920059   -2.840597   -1.045297
     35          1           0       -5.048877   -2.914971    1.103711
     36          1           0       -4.545068   -2.624096   -3.163234
     37          1           0       -5.850901   -3.378019   -1.199335
     38         14           0        0.000000    0.000000   -1.072376
     39          7           0       -1.368977   -0.790379   -0.274654
     40          7           0        0.000000    1.580759   -0.274654
     41          6           0       -3.010066   -1.737862    2.997434
     42          1           0       -2.336304   -1.348866    3.762811
     43          1           0       -4.001375   -1.316990    3.163687
     44          1           0       -3.141235   -2.806797    3.163687
     45          6           0        0.000000    3.475724    2.997434
     46          1           0        0.860140    4.123788    3.163687
     47          1           0       -0.860140    4.123788    3.163687
     48          1           0        0.000000    2.697731    3.762811
     49          6           0        3.010066   -1.737862    2.997434
     50          1           0        4.001375   -1.316990    3.163687
     51          1           0        2.336304   -1.348866    3.762811
     52          1           0        3.141235   -2.806797    3.163687
     53          6           0        0.000000    0.000000   -2.920276
     54          1           0       -0.889535    0.513573   -3.308775
     55          1           0        0.889535    0.513573   -3.308775
     56          1           0       -0.000000   -1.027147   -3.308775
     57          7           0        1.368977   -0.790379   -0.274654
 ---------------------------------------------------------------------
 Rotational constants (GHZ):           0.1229694           0.1229694           0.0897225
 Standard basis: 6-311++G(d,p) (5D, 7F)
 There are   562 symmetry adapted cartesian basis functions of A'  symmetry.
 There are   381 symmetry adapted cartesian basis functions of A"  symmetry.
 There are   539 symmetry adapted basis functions of A'  symmetry.
 There are   371 symmetry adapted basis functions of A"  symmetry.
   910 basis functions,  1432 primitive gaussians,   943 cartesian basis functions
   121 alpha electrons      121 beta electrons
       nuclear repulsion energy      3685.3545971989 Hartrees.
 NAtoms=   57 NActive=   57 NUniq=   20 SFac= 4.00D+00 NAtFMM=   60 NAOKFM=F Big=F
 Integral buffers will be    131072 words long.
 Raffenetti 2 integral format.
 Two-electron integral symmetry is turned on.
 Nuclear repulsion after empirical dispersion term =     3685.1956819907 Hartrees.
 One-electron integrals computed using PRISM.
 NBasis=   910 RedAO= T EigKep=  1.02D-06  NBF=   539   371
 NBsUse=   898 1.00D-06 EigRej=  4.92D-07 NBFU=   531   367
 ExpMin= 3.31D-02 ExpMax= 7.75D+04 ExpMxC= 2.65D+03 IAcc=3 IRadAn=         5 AccDes= 0.00D+00
 Harris functional with IExCor=  402 and IRadAn=       5 diagonalized for initial guess.
 HarFok:  IExCor=  402 AccDes= 0.00D+00 IRadAn=         5 IDoV= 1 UseB2=F ITyADJ=14
 ICtDFT=  3500011 ScaDFX=  1.000000  1.000000  1.000000  1.000000
 FoFCou: FMM=F IPFlag=           0 FMFlag=      100000 FMFlg1=           0
         NFxFlg=           0 DoJE=T BraDBF=F KetDBF=T FulRan=T
         wScrn=  0.000000 ICntrl=       500 IOpCl=  0 I1Cent=   200000004 NGrid=           0
         NMat0=    1 NMatS0=      1 NMatT0=    0 NMatD0=    1 NMtDS0=    0 NMtDT0=    0
 Petite list used in FoFCou.
 Initial guess orbital symmetries:
       Occupied  (A1) (A1) (A1) (E) (E) (A1) (E) (E) (A1) (A1)
                 (E) (E) (A1) (E) (E) (E) (E) (A1) (A1) (E) (E)
                 (A1) (E) (E) (A1) (E) (E) (A1) (E) (E) (A1) (E)
                 (E) (A1) (A1) (E) (E) (A1) (A1) (E) (E) (A1) (E)
                 (E) (A1) (E) (E) (A1) (E) (E) (A1) (E) (E) (A1)
                 (E) (E) (A1) (A1) (E) (E) (A1) (E) (E) (A1) (E)
                 (E) (A1) (E) (E) (A1) (A1) (E) (E) (A1) (E) (E)
                 (E) (E) (A1) (A1) (E) (E) (A1) (E) (E) (E) (E)
                 (A2) (A1) (E) (E) (E) (E) (A1) (E) (E) (E) (E)
                 (A1) (A2) (E) (E) (A1) (E) (E) (E) (E) (A1) (E)
                 (E) (A2) (E) (E) (A2) (E) (E) (A2) (E) (E) (A2)
                 (A1)
       Virtual   (E) (E) (A2) (E) (E) (A2) (E) (E) (A2) (A1) (A1)
                 (E) (E) (A1) (E) (E) (A1) (E) (E) (A1) (E) (E)
                 (A1) (E) (E) (A1) (E) (E) (E) (E) (A2) (E) (E)
                 (E) (E) (A2) (A1) (E) (E) (A1) (A1) (E) (E) (A1)
                 (E) (E) (E) (E) (A1) (A2) (E) (E) (E) (E) (A1)
                 (E) (E) (A1) (A1) (E) (E) (E) (E) (E) (E) (A1)
                 (A1) (E) (E) (A2) (A1) (E) (E) (E) (E) (A1) (E)
                 (E) (A1) (A2) (A1) (E) (E) (A1) (A2) (E) (E) (E)
                 (E) (E) (E) (E) (E) (A1) (E) (E) (E) (E) (A2)
                 (A1) (A1) (E) (E) (A1) (E) (E) (A1) (E) (E) (A1)
                 (E) (E) (E) (E) (A2) (A2) (A1) (A1) (E) (E) (E)
                 (E) (A1) (A1) (E) (E) (A1) (E) (E) (A1) (E) (E)
                 (A2) (E) (E) (A1) (E) (E) (A1) (E) (E) (A1) (E)
                 (E) (E) (E) (A1) (E) (E) (E) (E) (A1) (E) (E)
                 (A1) (E) (E) (A1) (E) (E) (A2) (A1) (E) (E) (A1)
                 (E) (E) (A1) (E) (E) (E) (E) (A1) (E) (E) (E)
                 (E) (A1) (A1) (A2) (E) (E) (E) (E) (E) (E) (A1)
                 (A1) (E) (E) (E) (E) (A2) (A1) (A1) (E) (E) (A1)
                 (E) (E) (A1) (A1) (E) (E) (E) (E) (A1) (E) (E)
                 (A1) (E) (E) (A1) (E) (E) (E) (E) (A1) (A1) (E)
                 (E) (A1) (E) (E) (A2) (A1) (E) (E) (E) (E) (A2)
                 (A1) (E) (E) (A1) (A1) (E) (E) (E) (E) (E) (E)
                 (A1) (E) (E) (E) (E) (A1) (A2) (A1) (E) (E) (A2)
                 (E) (E) (E) (E) (A2) (A1) (E) (E) (E) (E) (A1)
                 (A1) (E) (E) (E) (E) (A1) (E) (E) (A2) (E) (E)
                 (E) (E) (A1) (A2) (A1) (E) (E) (A2) (E) (E) (E)
                 (E) (E) (E) (A1) (E) (E) (A2) (A1) (E) (E) (E)
                 (E) (A1) (A1) (E) (E) (A1) (E) (E) (A2) (A1) (E)
                 (E) (E) (E) (A1) (A1) (E) (E) (A1) (E) (E) (A1)
                 (A1) (E) (E) (E) (E) (A1) (E) (E) (E) (E) (A1)
                 (E) (E) (E) (E) (A1) (A1) (A2) (E) (E) (A1) (E)
                 (E) (E) (E) (A2) (E) (E) (A1) (A2) (E) (E) (E)
                 (E) (A1) (A1) (E) (E) (A1) (E) (E) (A2) (E) (E)
                 (E) (E) (A1) (A2) (E) (E) (A2) (A1) (E) (E) (E)
                 (E) (A2) (E) (E) (A1) (A1) (E) (E) (A1) (E) (E)
                 (A1) (E) (E) (A2) (E) (E) (E) (E) (E) (E) (A1)
                 (A2) (A1) (A1) (E) (E) (E) (E) (A1) (E) (E) (A2)
                 (E) (E) (A1) (A1) (E) (E) (E) (E) (A2) (A2) (E)
                 (E) (A1) (E) (E) (E) (E) (A1) (A2) (E) (E) (E)
                 (E) (A1) (A1) (E) (E) (E) (E) (A2) (E) (E) (A2)
                 (A1) (E) (E) (E) (E) (E) (E) (A1) (E) (E) (A2)
                 (E) (E) (A1) (A1) (E) (E) (A1) (E) (E) (E) (E)
                 (A2) (A1) (E) (E) (E) (E) (A1) (E) (E) (A1) (A2)
                 (E) (E) (E) (E) (A1) (A1) (E) (E) (A2) (A1) (A2)
                 (E) (E) (E) (E) (E) (E) (A1) (E) (E) (A2) (A1)
                 (E) (E) (A1) (E) (E) (E) (E) (A2) (A1) (E) (E)
                 (E) (E) (A1) (E) (E) (A2) (E) (E) (A1) (E) (E)
                 (A1) (E) (E) (A1) (E) (E) (A1) (E) (E) (A2) (E)
                 (E) (A1) (E) (E) (A1) (A1) (E) (E) (E) (E) (A1)
                 (A2) (E) (E) (E) (E) (A1) (E) (E) (A2) (E) (E)
                 (E) (E) (A1) (E) (E) (A2) (E) (E) (A1) (E) (E)
                 (A1) (A2) (E) (E) (A1) (E) (E) (A2) (E) (E) (A1)
                 (E) (E) (A1) (E) (E) (A1) (E) (E) (A1) (E) (E)
                 (A2) (E) (E) (E) (E) (A1) (A1) (E) (E) (A1) (A2)
                 (E) (E) (E) (E) (A2) (E) (E) (E) (E) (A1) (E)
                 (E) (A1) (E) (E) (A1) (E) (E) (A1) (E) (E) (A2)
                 (E) (E) (A1) (E) (E) (A1) (A2) (E) (E) (E) (E)
                 (A1) (E) (E) (A1) (E) (E) (A2) (E) (E) (E) (E)
                 (A1) (A2) (A1) (E) (E) (E) (E) (A1) (A2) (E) (E)
                 (E) (E) (A1) (E) (E) (A2) (E) (E) (A1) (E) (E)
                 (E) (E) (A2) (A1) (E) (E) (A1) (A1) (E) (E) (A1)
                 (E) (E) (A1) (A1) (E) (E) (A1) (E) (E) (E) (E)
                 (A1) (A1) (E) (E) (E) (E) (A1) (E) (E) (A1) (A1)
                 (E) (E) (E) (E) (A1) (E) (E) (A2) (E) (E) (E)
                 (E) (A1) (E) (E) (A1) (A2) (E) (E) (A1) (E) (E)
                 (A1) (E) (E) (E) (E) (A1) (A1) (E) (E) (E) (E)
                 (A1) (A1) (E) (E) (E) (E) (A1) (E) (E) (A1) (A1)
                 (A1) (E) (E) (A1) (E) (E) (A1) (E) (E) (A1) (E)
                 (E) (A1) (E) (E) (E) (E) (A1) (A1) (A1) (E) (E)
                 (A1) (E) (E) (A1) (E) (E) (A1) (E) (E) (A1) (E)
                 (E) (A1) (E) (E) (A1) (A1) (A1)
 The electronic state of the initial guess is 1-A1.
 Requested convergence on RMS density matrix=1.00D-08 within 128 cycles.
 Requested convergence on MAX density matrix=1.00D-06.
 Requested convergence on             energy=1.00D-06.
 No special actions if energy rises.
 SCF Done:  E(RB3LYP) =  -1877.15714446     A.U. after   17 cycles
            NFock= 17  Conv=0.21D-08     -V/T= 2.0038

 **********************************************************************

            Population analysis using the SCF density.

 **********************************************************************

 Orbital symmetries:
       Occupied  (A1) (A1) (A1) (E) (E) (A1) (E) (E) (E) (E) (A1)
                 (A1) (A1) (E) (E) (A1) (E) (E) (A1) (E) (E) (E)
                 (E) (A1) (A1) (E) (E) (A1) (E) (E) (A1) (E) (E)
                 (A1) (A1) (E) (E) (A1) (E) (E) (A1) (A1) (E) (E)
                 (A1) (E) (E) (A1) (E) (E) (A1) (A1) (E) (E) (A1)
                 (E) (E) (A1) (E) (E) (A1) (A1) (E) (E) (E) (E)
                 (A1) (E) (E) (A1) (A1) (E) (E) (A1) (E) (E) (E)
                 (E) (A1) (E) (E) (A1) (E) (E) (A1) (E) (E) (A2)
                 (E) (E) (A1) (E) (E) (E) (E) (A2) (A1) (E) (E)
                 (A1) (E) (E) (A1) (E) (E) (A1) (E) (E) (E) (E)
                 (A2) (E) (E) (A2) (E) (E) (A1) (A2) (E) (E) (A2)
       Virtual   (E) (E) (A1) (A2) (E) (E) (A1) (E) (E) (E) (E)
                 (A1) (A2) (E) (E) (A1) (E) (E) (A1) (E) (E) (E)
                 (E) (A1) (A2) (E) (E) (E) (E) (A1) (A1) (E) (E)
                 (A1) (E) (E) (A2) (E) (E) (A1) (A2) (E) (E) (A1)
                 (E) (E) (A1) (E) (E) (A1) (E) (E) (E) (E) (A1)
                 (A2) (E) (E) (A1) (A1) (E) (E) (E) (E) (A1) (E)
                 (E) (E) (E) (A1) (A1) (A2) (E) (E) (A1) (E) (E)
                 (E) (E) (A2) (A1) (A2) (E) (E) (E) (E) (A1) (A1)
                 (E) (E) (E) (E) (E) (E) (A1) (A2) (E) (E) (A1)
                 (A1) (E) (E) (E) (E) (A2) (E) (E) (E) (E) (A1)
                 (A1) (E) (E) (E) (E) (A1) (A1) (E) (E) (A2) (E)
                 (E) (A2) (A1) (E) (E) (A1) (E) (E) (A1) (E) (E)
                 (E) (E) (A1) (E) (E) (E) (E) (A1) (A1) (E) (E)
                 (E) (E) (A2) (E) (E) (A1) (A1) (E) (E) (A1) (E)
                 (E) (A1) (A1) (E) (E) (A1) (E) (E) (A1) (E) (E)
                 (E) (E) (A1) (E) (E) (E) (E) (A2) (E) (E) (A1)
                 (E) (E) (A1) (E) (E) (E) (E) (A1) (A1) (A2) (A1)
                 (E) (E) (A1) (A1) (E) (E) (E) (E) (E) (E) (A1)
                 (E) (E) (A1) (E) (E) (A1) (E) (E) (E) (E) (A1)
                 (A1) (E) (E) (A1) (E) (E) (A1) (A1) (E) (E) (E)
                 (E) (A2) (A1) (E) (E) (A1) (E) (E) (A1) (A2) (A1)
                 (E) (E) (E) (E) (A1) (E) (E) (E) (E) (E) (E) (A1)
                 (E) (E) (E) (E) (A1) (A2) (E) (E) (A2) (E) (E)
                 (A1) (A1) (E) (E) (E) (E) (A2) (E) (E) (A1) (E)
                 (E) (E) (E) (A2) (E) (E) (A1) (E) (E) (A2) (E)
                 (E) (A1) (E) (E) (A1) (A1) (A2) (E) (E) (E) (E)
                 (E) (E) (A2) (E) (E) (A1) (A1) (E) (E) (E) (E)
                 (A1) (A1) (E) (E) (A1) (A1) (E) (E) (A2) (E) (E)
                 (A1) (E) (E) (A1) (E) (E) (A1) (A1) (E) (E) (A1)
                 (E) (E) (E) (E) (E) (E) (A1) (A1) (E) (E) (A1)
                 (E) (E) (E) (E) (A1) (E) (E) (A1) (E) (E) (A2)
                 (A1) (E) (E) (E) (E) (A1) (A2) (A1) (E) (E) (E)
                 (E) (E) (E) (A1) (A2) (E) (E) (A1) (E) (E) (E)
                 (E) (A1) (A2) (E) (E) (A2) (E) (E) (E) (E) (A1)
                 (A2) (E) (E) (A1) (A1) (A2) (E) (E) (E) (E) (A1)
                 (E) (E) (E) (E) (A2) (E) (E) (A1) (E) (E) (A1)
                 (A2) (A1) (E) (E) (E) (E) (A1) (E) (E) (A2) (E)
                 (E) (A1) (A2) (E) (E) (A1) (A2) (E) (E) (E) (E)
                 (A1) (E) (E) (E) (E) (A1) (E) (E) (A2) (E) (E)
                 (A1) (E) (E) (A1) (E) (E) (A2) (E) (E) (A2) (E)
                 (E) (A1) (E) (E) (E) (E) (A1) (E) (E) (E) (E)
                 (A2) (A1) (A1) (E) (E) (E) (E) (E) (E) (A1) (A2)
                 (E) (E) (A1) (A1) (E) (E) (A1) (A2) (E) (E) (E)
                 (E) (E) (E) (A1) (A1) (E) (E) (A1) (A2) (E) (E)
                 (A2) (E) (E) (A1) (E) (E) (A1) (E) (E) (A1) (E)
                 (E) (A2) (E) (E) (E) (E) (A1) (A2) (E) (E) (E)
                 (E) (A1) (E) (E) (E) (E) (A2) (E) (E) (A1) (A1)
                 (E) (E) (A1) (E) (E) (A1) (E) (E) (A2) (A1) (E)
                 (E) (A1) (E) (E) (A1) (E) (E) (E) (E) (A1) (A2)
                 (E) (E) (E) (E) (A1) (E) (E) (E) (E) (A1) (A2)
                 (E) (E) (E) (E) (A2) (E) (E) (A1) (A1) (E) (E)
                 (A2) (E) (E) (A2) (E) (E) (A1) (E) (E) (E) (E)
                 (A1) (A1) (E) (E) (A1) (E) (E) (A1) (E) (E) (A1)
                 (E) (E) (A2) (E) (E) (E) (E) (A1) (A2) (E) (E)
                 (A1) (E) (E) (E) (E) (A2) (A1) (A1) (E) (E) (E)
                 (E) (E) (E) (A1) (E) (E) (E) (E) (A1) (A1) (E)
                 (E) (E) (E) (A1) (E) (E) (A1) (A2) (E) (E) (A1)
                 (A1) (E) (E) (A2) (E) (E) (E) (E) (A2) (E) (E)
                 (E) (E) (A1) (A2) (E) (E) (A1) (A2) (A1) (E) (E)
                 (E) (E) (E) (E) (A1) (E) (E) (A2) (E) (E) (E)
                 (E) (A2) (A1) (E) (E) (A1) (A1) (A1) (E) (E) (E)
                 (E) (A1) (A1) (E) (E) (A1) (E) (E) (E) (E) (A1)
                 (A1) (E) (E) (E) (E) (A1) (E) (E) (A1) (A1) (E)
                 (E) (E) (E) (A1) (E) (E) (A2) (E) (E) (E) (E)
                 (A1) (E) (E) (A1) (A2) (E) (E) (A1) (E) (E) (A1)
                 (E) (E) (E) (E) (A1) (A1) (E) (E) (E) (E) (A1)
                 (A1) (E) (E) (E) (E) (A1) (E) (E) (A1) (A1) (A1)
                 (E) (E) (A1) (E) (E) (A1) (E) (E) (A1) (E) (E)
                 (A1) (E) (E) (A1) (A1) (E) (E) (A1) (E) (E) (A1)
                 (E) (E) (A1) (E) (E) (A1) (E) (E) (A1) (E) (E)
                 (A1) (E) (E) (A1) (A1) (A1)
 The electronic state is 1-A1.
 Alpha  occ. eigenvalues --  -77.04999 -66.17778 -14.34408 -14.34408 -14.34408
 Alpha  occ. eigenvalues --  -10.21608 -10.21608 -10.21608 -10.21132 -10.21132
 Alpha  occ. eigenvalues --  -10.21132 -10.20153 -10.18633 -10.18633 -10.18633
 Alpha  occ. eigenvalues --  -10.18269 -10.18269 -10.18269 -10.17874 -10.17874
 Alpha  occ. eigenvalues --  -10.17874 -10.17831 -10.17831 -10.17831 -10.17723
 Alpha  occ. eigenvalues --  -10.17723 -10.17723 -10.17303 -10.17303 -10.17303
 Alpha  occ. eigenvalues --  -10.16988 -10.16988 -10.16988  -6.54779  -5.34501
 Alpha  occ. eigenvalues --   -4.70911  -4.70911  -4.70429  -3.70373  -3.70373
 Alpha  occ. eigenvalues --   -3.70301  -0.98362  -0.96264  -0.96264  -0.85467
 Alpha  occ. eigenvalues --   -0.84561  -0.84561  -0.80974  -0.80115  -0.80115
 Alpha  occ. eigenvalues --   -0.76744  -0.74989  -0.74334  -0.74334  -0.74313
 Alpha  occ. eigenvalues --   -0.73101  -0.73101  -0.70802  -0.68933  -0.68933
 Alpha  occ. eigenvalues --   -0.66939  -0.61915  -0.61870  -0.61870  -0.59126
 Alpha  occ. eigenvalues --   -0.59126  -0.58365  -0.56284  -0.56284  -0.55796
 Alpha  occ. eigenvalues --   -0.52846  -0.51309  -0.51309  -0.49587  -0.48652
 Alpha  occ. eigenvalues --   -0.48652  -0.46961  -0.46961  -0.46153  -0.46000
 Alpha  occ. eigenvalues --   -0.46000  -0.44582  -0.44346  -0.44346  -0.44029
 Alpha  occ. eigenvalues --   -0.43695  -0.43695  -0.42986  -0.42420  -0.42420
 Alpha  occ. eigenvalues --   -0.41577  -0.40450  -0.40450  -0.40415  -0.40415
 Alpha  occ. eigenvalues --   -0.39661  -0.39192  -0.39155  -0.39155  -0.38023
 Alpha  occ. eigenvalues --   -0.37743  -0.37743  -0.36657  -0.36070  -0.36070
 Alpha  occ. eigenvalues --   -0.34688  -0.34272  -0.34272  -0.34205  -0.34205
 Alpha  occ. eigenvalues --   -0.33329  -0.28447  -0.28447  -0.28066  -0.24056
 Alpha  occ. eigenvalues --   -0.24056  -0.23371  -0.22358  -0.22272  -0.22272
 Alpha  occ. eigenvalues --   -0.20692
 Alpha virt. eigenvalues --   -0.04534  -0.04534  -0.02156  -0.02063  -0.00881
 Alpha virt. eigenvalues --   -0.00881  -0.00679  -0.00321  -0.00321   0.00745
 Alpha virt. eigenvalues --    0.00745   0.00798   0.00906   0.01760   0.01760
 Alpha virt. eigenvalues --    0.01940   0.01981   0.01981   0.02696   0.03155
 Alpha virt. eigenvalues --    0.03155   0.03482   0.03482   0.03776   0.04540
 Alpha virt. eigenvalues --    0.04798   0.04798   0.05039   0.05039   0.05237
 Alpha virt. eigenvalues --    0.05335   0.06076   0.06076   0.06201   0.06300
 Alpha virt. eigenvalues --    0.06300   0.06375   0.06993   0.06993   0.07849
 Alpha virt. eigenvalues --    0.08019   0.08237   0.08237   0.08329   0.08732
 Alpha virt. eigenvalues --    0.08732   0.09708   0.09709   0.09709   0.10292
 Alpha virt. eigenvalues --    0.10450   0.10450   0.10622   0.10622   0.10791
 Alpha virt. eigenvalues --    0.11129   0.11354   0.11354   0.11473   0.12028
 Alpha virt. eigenvalues --    0.12038   0.12038   0.12339   0.12339   0.12757
 Alpha virt. eigenvalues --    0.12823   0.12823   0.13014   0.13014   0.13051
 Alpha virt. eigenvalues --    0.13527   0.13877   0.13946   0.13946   0.14532
 Alpha virt. eigenvalues --    0.14627   0.14627   0.14739   0.14739   0.14861
 Alpha virt. eigenvalues --    0.14939   0.15358   0.15398   0.15398   0.15526
 Alpha virt. eigenvalues --    0.15526   0.15669   0.16154   0.16303   0.16303
 Alpha virt. eigenvalues --    0.16686   0.16686   0.17089   0.17089   0.17504
 Alpha virt. eigenvalues --    0.17693   0.17987   0.17987   0.18520   0.18878
 Alpha virt. eigenvalues --    0.18918   0.18918   0.19287   0.19287   0.19406
 Alpha virt. eigenvalues --    0.19765   0.19765   0.20204   0.20204   0.20270
 Alpha virt. eigenvalues --    0.21000   0.21085   0.21085   0.21575   0.21575
 Alpha virt. eigenvalues --    0.21594   0.22259   0.22335   0.22335   0.22524
 Alpha virt. eigenvalues --    0.22705   0.22705   0.22809   0.23383   0.23689
 Alpha virt. eigenvalues --    0.23689   0.23999   0.24257   0.24257   0.24470
 Alpha virt. eigenvalues --    0.24990   0.24990   0.25342   0.25342   0.25353
 Alpha virt. eigenvalues --    0.26050   0.26050   0.26517   0.26517   0.27183
 Alpha virt. eigenvalues --    0.27325   0.27352   0.27352   0.27615   0.27615
 Alpha virt. eigenvalues --    0.27955   0.28163   0.28163   0.28480   0.29046
 Alpha virt. eigenvalues --    0.29296   0.29296   0.29762   0.29871   0.29871
 Alpha virt. eigenvalues --    0.30058   0.30233   0.30601   0.30601   0.30679
 Alpha virt. eigenvalues --    0.30771   0.30771   0.31552   0.31933   0.31933
 Alpha virt. eigenvalues --    0.32258   0.32258   0.32424   0.32730   0.32730
 Alpha virt. eigenvalues --    0.33172   0.33172   0.33762   0.33774   0.33774
 Alpha virt. eigenvalues --    0.34231   0.34528   0.34528   0.34925   0.35337
 Alpha virt. eigenvalues --    0.35337   0.36429   0.36429   0.36510   0.36749
 Alpha virt. eigenvalues --    0.37450   0.37511   0.37971   0.37971   0.38841
 Alpha virt. eigenvalues --    0.39896   0.40138   0.40138   0.40332   0.40332
 Alpha virt. eigenvalues --    0.41175   0.41175   0.41217   0.41508   0.41508
 Alpha virt. eigenvalues --    0.42149   0.42538   0.42538   0.42749   0.43922
 Alpha virt. eigenvalues --    0.43922   0.45052   0.45052   0.45706   0.46664
 Alpha virt. eigenvalues --    0.48474   0.48474   0.48729   0.49031   0.49031
 Alpha virt. eigenvalues --    0.49637   0.50965   0.50975   0.50975   0.51467
 Alpha virt. eigenvalues --    0.51467   0.53039   0.53291   0.53732   0.53732
 Alpha virt. eigenvalues --    0.53812   0.55033   0.55033   0.55235   0.55864
 Alpha virt. eigenvalues --    0.55873   0.55913   0.55913   0.56232   0.56232
 Alpha virt. eigenvalues --    0.56952   0.57608   0.57608   0.57937   0.57937
 Alpha virt. eigenvalues --    0.59002   0.59002   0.59387   0.59390   0.59390
 Alpha virt. eigenvalues --    0.60171   0.60171   0.61231   0.61272   0.61738
 Alpha virt. eigenvalues --    0.61738   0.62660   0.62924   0.62924   0.63328
 Alpha virt. eigenvalues --    0.64110   0.64113   0.64113   0.65021   0.65021
 Alpha virt. eigenvalues --    0.65704   0.66466   0.66466   0.67187   0.68104
 Alpha virt. eigenvalues --    0.68104   0.68645   0.68645   0.68794   0.69644
 Alpha virt. eigenvalues --    0.69644   0.69663   0.70234   0.70234   0.70687
 Alpha virt. eigenvalues --    0.70823   0.70823   0.71074   0.71830   0.71830
 Alpha virt. eigenvalues --    0.71833   0.72995   0.73137   0.73546   0.73546
 Alpha virt. eigenvalues --    0.74682   0.74682   0.75047   0.75047   0.75974
 Alpha virt. eigenvalues --    0.76421   0.76421   0.76492   0.77265   0.77448
 Alpha virt. eigenvalues --    0.77448   0.78465   0.78465   0.78704   0.78928
 Alpha virt. eigenvalues --    0.79546   0.79546   0.80280   0.81351   0.82370
 Alpha virt. eigenvalues --    0.82370   0.82477   0.83330   0.83330   0.83859
 Alpha virt. eigenvalues --    0.83998   0.83998   0.84693   0.85331   0.85331
 Alpha virt. eigenvalues --    0.86275   0.87040   0.87538   0.87538   0.87833
 Alpha virt. eigenvalues --    0.88453   0.88453   0.90397   0.90397   0.91421
 Alpha virt. eigenvalues --    0.91421   0.91461   0.91756   0.92258   0.92258
 Alpha virt. eigenvalues --    0.93584   0.93784   0.93784   0.94458   0.94458
 Alpha virt. eigenvalues --    0.94820   0.96714   0.96714   0.97670   0.97843
 Alpha virt. eigenvalues --    0.97843   0.98161   0.98868   0.99153   0.99153
 Alpha virt. eigenvalues --    1.00480   1.00480   1.00701   1.01717   1.01752
 Alpha virt. eigenvalues --    1.01928   1.01928   1.02635   1.02635   1.03686
 Alpha virt. eigenvalues --    1.03686   1.03826   1.04126   1.04925   1.04925
 Alpha virt. eigenvalues --    1.05259   1.07459   1.07459   1.07773   1.07773
 Alpha virt. eigenvalues --    1.08400   1.08837   1.09393   1.09393   1.10041
 Alpha virt. eigenvalues --    1.10968   1.10968   1.12071   1.12071   1.12369
 Alpha virt. eigenvalues --    1.13043   1.13449   1.13449   1.13558   1.14105
 Alpha virt. eigenvalues --    1.14806   1.15256   1.15256   1.17105   1.17105
 Alpha virt. eigenvalues --    1.17962   1.20291   1.20291   1.21452   1.21452
 Alpha virt. eigenvalues --    1.23498   1.23560   1.23560   1.26354   1.28616
 Alpha virt. eigenvalues --    1.28616   1.30604   1.31869   1.32531   1.32547
 Alpha virt. eigenvalues --    1.32547   1.34963   1.34963   1.35865   1.37102
 Alpha virt. eigenvalues --    1.37102   1.39539   1.39848   1.39848   1.40236
 Alpha virt. eigenvalues --    1.42348   1.43151   1.43151   1.45232   1.46761
 Alpha virt. eigenvalues --    1.47417   1.47417   1.47784   1.47784   1.48264
 Alpha virt. eigenvalues --    1.48802   1.48802   1.52339   1.52339   1.52497
 Alpha virt. eigenvalues --    1.52982   1.52982   1.53082   1.54196   1.54196
 Alpha virt. eigenvalues --    1.55102   1.56507   1.56507   1.56715   1.56743
 Alpha virt. eigenvalues --    1.56743   1.56747   1.57229   1.57229   1.58093
 Alpha virt. eigenvalues --    1.59795   1.59795   1.60553   1.60842   1.60842
 Alpha virt. eigenvalues --    1.61578   1.61578   1.62520   1.63254   1.63254
 Alpha virt. eigenvalues --    1.64215   1.64215   1.64417   1.65281   1.66277
 Alpha virt. eigenvalues --    1.67201   1.67201   1.67893   1.67893   1.69442
 Alpha virt. eigenvalues --    1.69442   1.69695   1.69887   1.71094   1.71094
 Alpha virt. eigenvalues --    1.71303   1.72271   1.73093   1.73093   1.74200
 Alpha virt. eigenvalues --    1.74501   1.74634   1.74634   1.75551   1.75551
 Alpha virt. eigenvalues --    1.77367   1.77367   1.77631   1.80394   1.81282
 Alpha virt. eigenvalues --    1.81282   1.83188   1.83239   1.83417   1.83417
 Alpha virt. eigenvalues --    1.84509   1.85452   1.85452   1.86915   1.87000
 Alpha virt. eigenvalues --    1.87000   1.88850   1.88878   1.88878   1.89807
 Alpha virt. eigenvalues --    1.90663   1.90663   1.90759   1.91347   1.91347
 Alpha virt. eigenvalues --    1.92448   1.92448   1.93001   1.93518   1.94099
 Alpha virt. eigenvalues --    1.94099   1.94904   1.94904   1.97647   1.97875
 Alpha virt. eigenvalues --    1.97875   1.99673   1.99673   1.99776   2.00101
 Alpha virt. eigenvalues --    2.00101   2.00235   2.01156   2.01351   2.01351
 Alpha virt. eigenvalues --    2.03132   2.04581   2.04581   2.05092   2.05635
 Alpha virt. eigenvalues --    2.05635   2.08942   2.09730   2.10006   2.10006
 Alpha virt. eigenvalues --    2.12815   2.12994   2.12994   2.13000   2.14550
 Alpha virt. eigenvalues --    2.14550   2.16405   2.16405   2.18733   2.19518
 Alpha virt. eigenvalues --    2.19542   2.19542   2.21183   2.21183   2.22109
 Alpha virt. eigenvalues --    2.22408   2.22408   2.22955   2.22955   2.25222
 Alpha virt. eigenvalues --    2.25312   2.26440   2.26440   2.34357   2.34357
 Alpha virt. eigenvalues --    2.35238   2.36286   2.36286   2.36288   2.41101
 Alpha virt. eigenvalues --    2.41190   2.41190   2.42543   2.44312   2.44312
 Alpha virt. eigenvalues --    2.44956   2.45650   2.45650   2.46163   2.46622
 Alpha virt. eigenvalues --    2.46622   2.48345   2.48345   2.48801   2.49737
 Alpha virt. eigenvalues --    2.50220   2.50220   2.50519   2.52243   2.52243
 Alpha virt. eigenvalues --    2.53796   2.55716   2.55716   2.57607   2.58297
 Alpha virt. eigenvalues --    2.58297   2.58923   2.59375   2.59375   2.61642
 Alpha virt. eigenvalues --    2.61642   2.61832   2.61853   2.62552   2.62552
 Alpha virt. eigenvalues --    2.62924   2.63398   2.63398   2.66446   2.66446
 Alpha virt. eigenvalues --    2.68686   2.69088   2.69416   2.69558   2.69558
 Alpha virt. eigenvalues --    2.70233   2.70233   2.71481   2.71481   2.72360
 Alpha virt. eigenvalues --    2.72856   2.72856   2.75929   2.75929   2.75965
 Alpha virt. eigenvalues --    2.76658   2.76757   2.76757   2.79521   2.79521
 Alpha virt. eigenvalues --    2.79884   2.80692   2.80692   2.80790   2.82447
 Alpha virt. eigenvalues --    2.83176   2.83176   2.83342   2.84019   2.84922
 Alpha virt. eigenvalues --    2.84922   2.85075   2.86218   2.86218   2.87361
 Alpha virt. eigenvalues --    2.87361   2.88257   2.88628   2.88628   2.90449
 Alpha virt. eigenvalues --    2.90449   2.92509   2.93120   2.95089   2.95089
 Alpha virt. eigenvalues --    2.95719   2.96394   2.97124   2.97563   2.97563
 Alpha virt. eigenvalues --    2.98058   2.98058   3.02991   3.02991   3.05195
 Alpha virt. eigenvalues --    3.07943   3.07943   3.07964   3.09201   3.09201
 Alpha virt. eigenvalues --    3.11147   3.11147   3.13551   3.15501   3.22219
 Alpha virt. eigenvalues --    3.22219   3.22469   3.26347   3.27390   3.29371
 Alpha virt. eigenvalues --    3.29371   3.32264   3.32264   3.34029   3.36120
 Alpha virt. eigenvalues --    3.37801   3.37801   3.41128   3.42492   3.42492
 Alpha virt. eigenvalues --    3.47134   3.47134   3.47759   3.53023   3.54580
 Alpha virt. eigenvalues --    3.54580   3.54759   3.54759   3.56118   3.58411
 Alpha virt. eigenvalues --    3.58411   3.58653   3.63279   3.64116   3.64116
 Alpha virt. eigenvalues --    3.72986   3.72986   3.76947   3.77220   3.77220
 Alpha virt. eigenvalues --    3.78511   3.78799   3.78799   3.86496   3.86496
 Alpha virt. eigenvalues --    3.87155   3.93914   3.93914   3.95304   3.99799
 Alpha virt. eigenvalues --    4.01627   4.01627   4.03901   4.03942   4.03942
 Alpha virt. eigenvalues --    4.07965   4.08256   4.08256   4.18523   4.18523
 Alpha virt. eigenvalues --    4.19151   4.25166   4.26908   4.26908   4.44021
 Alpha virt. eigenvalues --    4.44021   4.44696   4.59302   4.61468   4.61468
 Alpha virt. eigenvalues --    4.84282   4.84282   4.84976   5.12778   5.12778
 Alpha virt. eigenvalues --    5.13699   6.04383   7.31410  11.58004  11.58004
 Alpha virt. eigenvalues --   11.78077  14.23263  14.23263  14.36252  23.60299
 Alpha virt. eigenvalues --   23.60299  23.60431  23.80433  23.80433  23.81669
 Alpha virt. eigenvalues --   23.94964  23.94964  23.95757  23.96360  23.98071
 Alpha virt. eigenvalues --   23.98071  23.98356  23.99611  23.99611  24.01901
 Alpha virt. eigenvalues --   24.04081  24.04081  24.04430  24.08996  24.08996
 Alpha virt. eigenvalues --   24.10200  24.10570  24.10570  24.13936  24.17805
 Alpha virt. eigenvalues --   24.17805  24.18082  35.58436  35.58436  35.63505
 Alpha virt. eigenvalues --  141.52367 163.50156
          Condensed to atoms (all electrons):
 Mulliken charges:
               1
     1  C   -0.832178
     2  C    0.185255
     3  C   -0.532372
     4  C   -0.485277
     5  C   -0.221531
     6  C   -0.188293
     7  C    0.053595
     8  C    0.311245
     9  H    0.159202
    10  H    0.151706
    11  H    0.173930
    12  H    0.109697
    13  P   -1.040325
    14  C    0.053595
    15  C    0.311245
    16  C   -0.832178
    17  C    0.185255
    18  C   -0.188293
    19  C   -0.532372
    20  C   -0.221531
    21  H    0.109697
    22  C   -0.485277
    23  H    0.159202
    24  H    0.173930
    25  H    0.151706
    26  C    0.053595
    27  C    0.311245
    28  C   -0.832178
    29  C    0.185255
    30  C   -0.188293
    31  C   -0.532372
    32  C   -0.221531
    33  H    0.109697
    34  C   -0.485277
    35  H    0.159202
    36  H    0.173930
    37  H    0.151706
    38  Si   2.749532
    39  N    0.479219
    40  N    0.479219
    41  C   -0.322223
    42  H    0.139080
    43  H    0.165131
    44  H    0.165131
    45  C   -0.322223
    46  H    0.165131
    47  H    0.165131
    48  H    0.139080
    49  C   -0.322223
    50  H    0.165131
    51  H    0.139080
    52  H    0.165131
    53  C   -1.080536
    54  H    0.279124
    55  H    0.279124
    56  H    0.279124
    57  N    0.479219
 Sum of Mulliken charges =  -0.00000
 Mulliken charges with hydrogens summed into heavy atoms:
               1
     1  C   -0.832178
     2  C    0.185255
     3  C   -0.373170
     4  C   -0.333571
     5  C   -0.047601
     6  C   -0.078596
     7  C    0.053595
     8  C    0.311245
    13  P   -1.040325
    14  C    0.053595
    15  C    0.311245
    16  C   -0.832178
    17  C    0.185255
    18  C   -0.078596
    19  C   -0.373170
    20  C   -0.047601
    22  C   -0.333571
    26  C    0.053595
    27  C    0.311245
    28  C   -0.832178
    29  C    0.185255
    30  C   -0.078596
    31  C   -0.373170
    32  C   -0.047601
    34  C   -0.333571
    38  Si   2.749532
    39  N    0.479219
    40  N    0.479219
    41  C    0.147120
    45  C    0.147120
    49  C    0.147120
    53  C   -0.243163
    57  N    0.479219
 Electronic spatial extent (au):  <R**2>=          14006.1530
 Charge=             -0.0000 electrons
 Dipole moment (field-independent basis, Debye):
    X=              0.0000    Y=              0.0000    Z=             -1.7659  Tot=              1.7659
 Quadrupole moment (field-independent basis, Debye-Ang):
   XX=           -208.2863   YY=           -208.2863   ZZ=           -188.1941
   XY=             -0.0000   XZ=              0.0000   YZ=             -0.0000
 Traceless Quadrupole moment (field-independent basis, Debye-Ang):
   XX=             -6.6974   YY=             -6.6974   ZZ=             13.3948
   XY=             -0.0000   XZ=              0.0000   YZ=             -0.0000
 Octapole moment (field-independent basis, Debye-Ang**2):
  XXX=              0.0000  YYY=             68.3089  ZZZ=            -37.7416  XYY=              0.0000
  XXY=            -68.3089  XXZ=             24.6846  XZZ=             -0.0000  YZZ=              0.0000
  YYZ=             24.6846  XYZ=              0.0000
 Hexadecapole moment (field-independent basis, Debye-Ang**3):
 XXXX=          -7862.8409 YYYY=          -7862.8409 ZZZZ=          -3815.8730 XXXY=              0.0000
 XXXZ=             -0.0000 YYYX=             -0.0000 YYYZ=            -11.1000 ZZZX=              0.0000
 ZZZY=             -0.0000 XXYY=          -2620.9470 XXZZ=          -1873.5376 YYZZ=          -1873.5376
 XXYZ=             11.1000 YYXZ=              0.0000 ZZXY=              0.0000
 N-N= 3.685195681991D+03 E-N=-1.176481922977D+04  KE= 1.870129263947D+03
 Symmetry A'   KE= 1.396881920193D+03
 Symmetry A"   KE= 4.732473437545D+02
 Calling FoFJK, ICntrl=      2127 FMM=F ISym2X=1 I1Cent= 0 IOpClX= 0 NMat=1 NMatS=1 NMatT=0.
 ***** Axes restored to original set *****
 -------------------------------------------------------------------
 Center     Atomic                   Forces (Hartrees/Bohr)
 Number     Number              X              Y              Z
 -------------------------------------------------------------------
      1        6          -0.000000000   -0.008844555    0.007621447
      2        6           0.000000000    0.004035255   -0.000152206
      3        6          -0.000000000   -0.003072049    0.001321141
      4        6          -0.000000000   -0.001565577    0.001783122
      5        6           0.000000000    0.001410903   -0.000249972
      6        6           0.000000000    0.001303077   -0.003459807
      7        6          -0.000000000   -0.016940019    0.016732806
      8        6          -0.000000000   -0.009929174    0.001703774
      9        1          -0.000000000   -0.001522194    0.001215322
     10        1          -0.000000000   -0.001623695    0.000007598
     11        1          -0.000000000   -0.000403572   -0.001574306
     12        1           0.000000000    0.000598988   -0.001688875
     13       15          -0.000000000    0.000000000   -0.083974383
     14        6           0.014670487    0.008470010    0.016732806
     15        6           0.008598917    0.004964587    0.001703774
     16        6           0.007659610    0.004422278    0.007621447
     17        6          -0.003494634   -0.002017628   -0.000152206
     18        6          -0.001128498   -0.000651539   -0.003459807
     19        6           0.002660473    0.001536025    0.001321141
     20        6          -0.001221878   -0.000705451   -0.000249972
     21        1          -0.000518739   -0.000299494   -0.001688875
     22        6           0.001355830    0.000782789    0.001783122
     23        1           0.001318259    0.000761097    0.001215322
     24        1           0.000349504    0.000201786   -0.001574306
     25        1           0.001406161    0.000811848    0.000007598
     26        6          -0.014670487    0.008470010    0.016732806
     27        6          -0.008598917    0.004964587    0.001703774
     28        6          -0.007659610    0.004422278    0.007621447
     29        6           0.003494634   -0.002017628   -0.000152206
     30        6           0.001128498   -0.000651539   -0.003459807
     31        6          -0.002660473    0.001536025    0.001321141
     32        6           0.001221878   -0.000705451   -0.000249972
     33        1           0.000518739   -0.000299494   -0.001688875
     34        6          -0.001355830    0.000782789    0.001783122
     35        1          -0.001318259    0.000761097    0.001215322
     36        1          -0.000349504    0.000201786   -0.001574306
     37        1          -0.001406161    0.000811848    0.000007598
     38       14          -0.000000000    0.000000000   -0.017076987
     39        7           0.025953879   -0.014984479    0.007977509
     40        7           0.000000000    0.029968958    0.007977509
     41        6           0.000073681   -0.000042540    0.001150878
     42        1          -0.001205980    0.000696273    0.003081665
     43        1           0.002207366    0.005094568   -0.000329645
     44        1          -0.003308342   -0.004458919   -0.000329645
     45        6           0.000000000    0.000085079    0.001150878
     46        1          -0.005515708   -0.000635649   -0.000329645
     47        1           0.005515708   -0.000635649   -0.000329645
     48        1          -0.000000000   -0.001392546    0.003081665
     49        6          -0.000073681   -0.000042540    0.001150878
     50        1          -0.002207366    0.005094568   -0.000329645
     51        1           0.001205980    0.000696273    0.003081665
     52        1           0.003308342   -0.004458919   -0.000329645
     53        6           0.000000000    0.000000000    0.003295424
     54        1          -0.003019851   -0.001743512   -0.002225491
     55        1           0.003019851   -0.001743512   -0.002225491
     56        1           0.000000000    0.003487024   -0.002225491
     57        7          -0.025953879   -0.014984479    0.007977509
 -------------------------------------------------------------------
 Cartesian Forces:  Max     0.083974383 RMS     0.008756755

 GradGradGradGradGradGradGradGradGradGradGradGradGradGradGradGradGradGrad
 Berny optimization.
 FormGI is forming the generalized inverse of G from B-inverse, IUseBI=4.
 Internal  Forces:  Max     0.018915774 RMS     0.004374246
 Search for a local minimum.
 Step number   1 out of a maximum of  342
 All quantities printed in internal units (Hartrees-Bohrs-Radians)
 Mixed Optimization -- RFO/linear search
 Second derivative matrix not updated -- first step.
 ITU=  0
     Eigenvalues ---    0.00809   0.00809   0.00809   0.01405   0.01424
     Eigenvalues ---    0.01424   0.01457   0.01520   0.01520   0.01520
[...]
 000201,0.00007939,-0.00001746,-0.00002200,0.00007232,-0.00001379,0.000
 00201,0.00001909,-0.00034540,0.00021231,-0.00001500,0.00068647,0.00004
 115,-0.00016114,-0.00008263,-0.00000158,0.00002726,-0.00000672,0.00000
 199,0.00000450,-0.00001094,-0.00000008,0.00003005,-0.00003524,0.000004
 06,-0.00001691,0.00001637,-0.00013598,-0.00016522,-0.00035540,-0.00000
 063,0.00014249,-0.00001210,0.00005901,0.00000451,0.00001100,0.00000872
 ,-0.00000046,0.00004234,0.00019740,0.00013306,-0.00009208,-0.00007888,
 0.00001494,-0.00005959,-0.00010156,-0.00013412,0.00013936,0.00006406,0
 .00003404,-0.00002145,-0.00012438,-0.00001040,-0.00004381,-0.00028129,
 -0.00058180,-0.00024219,-0.00000852,-0.00001099,0.00008535,0.00000193,
 0.00000083,0.00000278,0.00000072,-0.00000359,0.00000087,0.00000989,-0.
 00000727,0.00000206,0.00023951,0.00002000,-0.00000792,0.00001409,-0.00
 002182,-0.00004587,-0.00036551,0.00011880,-0.00013352,0.00008499,-0.00
 003925,-0.00005242,0.00012901,0.00005309,-0.00049485,-0.00005074,0.000
 03014,0.00000107,0.00004981,0.00002028,0.00022351,-0.00016080,-0.00002
 912,0.00033564,-0.00004179,0.00000258,0.00001230,0.00000204,0.00000438
 ,0.00000625,0.00000603,-0.00000473,-0.00000870,-0.00001591,0.00000769,
 0.00002324,-0.00061626,-0.00088886,-0.00055141,0.00060628,-0.00012357,
 -0.00092264,0.00008232,-0.00038242,0.00042046,0.00000779,-0.00004241,-
 0.00000105,0.00000279,0.00000029,0.00000752,-0.00000205,0.00000509,0.0
 0000016,0.00000173,-0.00000230,-0.00001235,-0.00000804,-0.00003106,-0.
 00000415,0.00000351,0.00000447,0.00000397,-0.00000175,0.00000250,0.000
 00557,0.00000117,-0.00000277,-0.00001444,0.00000104,-0.00001601,-0.000
 00581,0.00000477,0.00000266,-0.00000069,-0.00000200,-0.00000090,0.0000
 0502,0.00000175,0.00000030,-0.00000387,-0.21897368,0.10232459,0.076689
 64,-0.01946945,0.01240214,0.01023612,0.23853547,-0.00002745,0.00053655
 ,0.00014351,0.00005099,-0.00014090,0.00008618,-0.00000180,0.00012959,0
 .00001468,-0.00001876,0.00002693,-0.00010658,0.00006265,-0.00011947,-0
 .00014896,0.00004713,-0.00018848,0.00023643,-0.00000570,-0.00003136,-0
 .00006028,-0.00000640,0.00002420,-0.00005288,0.00000088,0.00000502,-0.
 00000953,-0.00001302,0.00002306,-0.00002275,-0.00000166,-0.00001110,0.
 00000845,-0.00049801,-0.00071230,0.00007380,0.00014257,0.00016413,0.00
 000693,-0.00015096,-0.00004926,0.00010176,0.00003316,0.00001389,0.0000
 3220,0.00061425,0.00025846,-0.00012773,-0.00015830,-0.00007829,-0.0000
 6903,-0.00019664,0.00012572,-0.00071354,0.00011529,0.00006752,0.000007
 76,-0.00005419,0.00000698,0.00037372,-0.00024877,-0.00056719,0.0002714
 4,0.00008011,0.00001341,0.00006526,0.00000447,0.00000508,0.00001424,-0
 .00001883,-0.00000776,-0.00001841,0.00003582,0.00001308,0.00004191,0.0
 0002005,0.00026262,0.00000463,-0.00002181,-0.00001117,0.00002649,0.000
 11863,-0.00022828,0.00007706,-0.00003916,0.00003964,0.00003019,0.00005
 323,0.00019018,0.00028504,0.00003008,-0.00001594,-0.00000062,0.0000203
 6,0.00007315,-0.00012893,-0.00002923,-0.00019425,-0.00019327,0.0000025
 6,-0.00003876,-0.00000707,0.00000438,0.00000710,-0.00000361,-0.0000047
 3,0.00000058,0.00000502,0.00000768,-0.00000703,-0.00001340,-0.00088833
 ,-0.00164135,0.00031862,-0.00012347,0.00046343,0.00053260,0.00008562,-
 0.00059382,-0.00020764,-0.00004239,-0.00004118,0.00000060,0.00000029,0
 .00000312,-0.00000433,-0.00000448,0.00000334,0.00001435,0.00000727,-0.
 00000043,-0.00000731,-0.00002128,-0.00002613,0.00000431,0.00000194,0.0
 0000889,0.00000308,-0.00000171,0.00000337,0.00000768,0.00000092,-0.000
 00412,-0.00001414,-0.00002582,-0.00003525,0.00000142,0.00000520,0.0000
 0763,-0.00000498,-0.00000460,-0.00000095,0.00001958,0.00000452,-0.0000
 0013,-0.00000867,0.10232411,-0.10082020,-0.04427596,-0.01240214,0.0071
 2432,0.00697621,-0.11218106,0.10899990,0.00014729,0.00027692,-0.000207
 37,0.00003221,0.00010898,-0.00000328,0.00000322,-0.00008347,-0.0000178
 9,0.00001754,-0.00007812,0.00008607,-0.00007396,0.00014953,0.00014844,
 -0.00019828,-0.00014218,-0.00034253,-0.00050125,-0.00017584,-0.0002673
 0,-0.00003162,-0.00009015,0.00015348,0.00000232,-0.00001185,0.00000703
 ,0.00000932,-0.00002424,0.00001917,-0.00000167,-0.00002711,-0.00001765
 ,0.00020176,0.00009151,0.00047503,0.00041778,-0.00024109,0.00000839,-0
 .00009841,0.00052202,-0.00026706,0.00006225,0.00007244,0.00015348,-0.0
 0016594,-0.00026560,-0.00020748,-0.00007830,-0.00008244,-0.00000340,0.
 00002379,0.00024253,-0.00034305,0.00007392,0.00003895,-0.00001791,-0.0
 0016665,-0.00001075,0.00014859,0.00002179,-0.00022046,0.00047551,0.000
 07644,0.00002386,0.00008611,0.00001142,0.00000392,0.00000703,0.0000226
 5,0.00001501,-0.00001766,0.00002566,0.00000405,0.00001918,0.00114365,-
 0.00066031,0.00113606,0.00021961,-0.00012679,-0.00064835,-0.00127534,0
 .00073657,-0.00024558,0.00007958,-0.00004596,-0.00029545,0.00001949,-0
 .00001142,-0.00002055,0.00000851,-0.00000491,0.00000385,-0.00009096,0.
 00005246,0.00018411,0.00007871,-0.00004544,0.00011381,0.00004672,-0.00
 002699,-0.00005993,0.00002307,-0.00001332,-0.00000530,0.00002132,-0.00
 001231,0.00000950,0.00000391,-0.00000226,0.00001218,0.02016252,-0.0116
 4107,-0.00539845,-0.00064222,0.00037056,-0.00583660,-0.00092034,0.0007
 2909,0.00107876,0.00013212,-0.00007627,0.00007269,-0.00000937,0.000005
 40,-0.00002192,0.00002320,-0.00000974,-0.00005926,0.00002004,-0.000015
 22,-0.00005926,0.00008288,-0.00001617,-0.00002303,-0.00000202,-0.00000
 752,0.00002675,-0.00000522,-0.00000777,-0.00000304,0.00000192,0.000004
 88,0.00002012,0.00005541,-0.00006370,-0.00002303,0.00000550,0.00000550
 ,0.00002675,-0.00000327,-0.00000410,0.00002012,0.00000412,0.00000841,-
 0.00000305,0.08839035,-0.05103163,-0.07478954,-0.01023612,0.00697621,0
 .00367061,-0.08491955,0.04902806,0.07629190,-0.00015978,-0.00000015,-0
 .00000002,0.00001703,0.00000008,-0.00000007,0.00000144,-0.00000004,0.,
 -0.00003729,-0.00000004,0.00000003,0.00008491,0.00000009,0.00000009,0.
 00022093,0.00000016,-0.00000058,0.00027418,0.00000003,0.00000005,-0.00
 002375,0.00000003,0.,0.00000963,0.,0.,-0.00000260,0.,0.00000001,-0.000
 00215,0.,0.,-0.00021115,-0.00000015,0.00000044,0.00024634,-0.00000002,
 -0.00000003,-0.00008561,-0.00006747,0.00009363,0.00002676,0.00002275,0
 .00004906,0.00056680,0.00040098,-0.00015666,-0.00014052,-0.00012271,-0
 .00008958,-0.00007433,-0.00021236,-0.00054827,0.00013132,0.00007646,-0
 .00000400,-0.00005383,-0.00009492,0.00030175,-0.00085537,0.00008267,0.
 00011398,0.00003786,0.00005334,0.00009919,0.00000659,0.00000178,0.0000
 1372,-0.00001535,-0.00000955,-0.00001551,0.00002465,0.00002730,0.00003
 732,-0.00008548,0.00006741,-0.00009352,0.00002679,-0.00002278,-0.00004
 916,0.00056664,-0.00040118,0.00015670,-0.00014055,0.00012277,0.0000895
 9,-0.00007437,0.00021265,0.00054799,0.00013129,-0.00007644,0.00000399,
 -0.00005371,0.00009482,-0.00030171,-0.00085540,-0.00008265,-0.00011379
 ,0.00003790,-0.00005334,-0.00009919,0.00000659,-0.00000178,-0.00001372
 ,-0.00001535,0.00000955,0.00001551,0.00002464,-0.00002730,-0.00003732,
 -0.00215462,-0.00000008,0.00000012,-0.00055333,0.00045258,0.00003038,0
 .00039217,0.,-0.00000002,-0.00004427,-0.00000037,0.00000164,-0.0000035
 9,0.00000368,-0.00001946,0.00000243,-0.00000412,0.00000944,0.00001032,
 -0.00000200,0.00000466,-0.00006565,0.,0.,0.00000226,0.00000696,-0.0000
 1251,0.00000226,-0.00000697,0.00001251,0.00000328,0.,0.,-0.00004429,0.
 00000036,-0.00000166,0.00000243,0.00000412,-0.00000944,-0.00000359,-0.
 00000368,0.00001946,0.00001032,0.00000200,-0.00000466,-0.04174344,-0.0
 0000001,0.00000036,0.00047616,-0.02391757,0.01115979,0.00047651,0.0239
 1752,-0.01116000,0.04423214,0.00000002,-0.00043402,-0.00015416,0.,0.00
 010760,-0.00006049,0.00000001,-0.00006812,0.00000123,-0.00000002,-0.00
 004326,0.00001419,0.00000001,0.00003805,0.00025803,0.00000003,0.000098
 27,-0.00057107,-0.00000001,0.00022795,-0.00000918,0.00000003,0.0000266
 6,-0.00005297,0.,-0.00000049,0.00000722,0.,-0.00002035,0.00002683,0.,0
 .00000876,-0.00001005,-0.00000005,-0.00014390,0.00038730,-0.00000006,-
 0.00008286,-0.00001399,0.00008800,0.00009536,-0.00004135,-0.00001088,-
 0.00000415,0.00002057,-0.00008021,-0.00011093,-0.00001589,0.00005053,-
 0.00001665,-0.00001709,-0.00014985,0.00009848,0.00047746,-0.00000479,0
 .00000027,-0.00002245,-0.00005113,-0.00006357,-0.00022480,-0.00025036,
 0.00000689,-0.00034546,-0.00003777,-0.00003297,0.00004128,-0.00000185,
 0.00000042,-0.00000472,0.00000569,0.00000831,0.00000996,-0.00001579,-0
 .00000168,-0.00001916,-0.00008804,0.00009527,-0.00004142,0.00001088,-0
 .00000417,0.00002062,0.00007956,-0.00011077,-0.00001560,-0.00005039,-0
 .00001657,-0.00001719,0.00015052,0.00009820,0.00047628,0.00000475,0.00
 000030,-0.00002246,0.00005126,-0.00006375,-0.00022465,0.00025014,0.000
 00712,-0.00034468,0.00003774,-0.00003296,0.00004135,0.00000185,0.00000
 042,-0.00000471,-0.00000570,0.00000831,0.00000995,0.00001577,-0.000001
 66,-0.00001914,-0.00000035,-0.00010333,-0.00063600,-0.00001491,0.00004
 200,0.00046761,0.,0.00067754,-0.00106533,-0.00001012,0.00001011,-0.000
 00577,-0.00000001,0.00000065,-0.00000543,0.00000008,-0.00000081,0.0000
 0098,0.00000054,0.00000208,0.00000190,0.,0.00003226,-0.00000121,-0.000
 00261,-0.00000097,-0.00000704,0.00000261,-0.00000096,-0.00000704,0.,0.
 00000262,0.00000867,0.00001013,0.00001009,-0.00000576,-0.00000009,-0.0
 0000080,0.00000099,0.00000001,0.00000065,-0.00000544,-0.00000054,0.000
 00208,0.00000189,0.00000023,-0.27805277,0.08855437,0.00088679,-0.01282
 057,0.00537643,-0.00088693,-0.01282021,0.00537640,0.00000001,0.3033032
 3,0.00000021,-0.00147276,-0.00024558,0.,0.00009190,-0.00029545,0.,0.00
 000982,0.00000385,-0.00000001,0.00005396,-0.00005993,-0.00000005,-0.00
 010500,0.00018411,-0.00000014,0.00002259,-0.00002055,-0.00000002,0.001
 32058,0.00113606,0.,0.00025358,-0.00064835,0.,0.00002664,-0.00000530,0
 .,0.00000451,0.00001218,0.,0.00002462,0.00000950,0.,0.00009089,0.00011
 381,0.00000005,0.00048233,0.00000847,0.00040288,-0.00034623,-0.0002670
 6,0.00009386,0.00001769,0.00015348,-0.00031299,-0.00001091,-0.00020748
 ,-0.00011055,-0.00002659,-0.00000340,0.00022193,-0.00010067,-0.0003430
 5,0.00007069,0.00004454,-0.00001791,-0.00009263,-0.00013894,0.00014859
 ,-0.00018003,0.00012910,0.00047551,0.00005888,0.00005427,0.00008611,0.
 00000910,0.00000793,0.00000703,0.00002432,0.00001211,-0.00001766,0.000
 01634,0.00002020,0.00001918,-0.00040291,-0.00034617,-0.00026730,-0.000
 09389,0.00001769,0.00015348,0.00031347,-0.00001090,-0.00020737,0.00011
 048,-0.00002659,-0.00000328,-0.00022228,-0.00010063,-0.00034253,-0.000
 07067,0.00004452,-0.00001789,0.00009251,-0.00013882,0.00014844,0.00018
 013,0.00012897,0.00047503,-0.00005888,0.00005425,0.00008607,-0.0000091
 0,0.00000793,0.00000703,-0.00002431,0.00001210,-0.00001765,-0.00001633
 ,0.00002019,0.00001917,-0.00000012,0.02328201,-0.00539931,0.00017113,-
 0.00116176,0.00107889,0.,-0.00074145,-0.00583660,0.00002742,0.00007985
 ,-0.00002303,0.00000519,-0.00000078,0.00002012,-0.00000934,-0.00000064
 ,-0.00000304,-0.00000752,0.00000201,0.00002675,0.,0.00015255,0.0000726
 9,-0.00000316,0.00002496,-0.00005926,0.00000316,0.00002496,-0.00005926
 ,0.,-0.00001081,-0.00002192,-0.00002745,0.00007983,-0.00002303,0.00000
 934,-0.00000063,-0.00000305,-0.00000519,-0.00000078,0.00002012,0.00000
 752,0.00000201,0.00002675,0.00000024,0.10206513,-0.07479024,0.00092365
 ,-0.01235300,0.00367102,-0.00092390,-0.01235304,0.00367142,-0.00000022
 ,-0.09805652,0.07629190,-0.00202566,0.00387716,0.00363608,-0.00034282,
 -0.00124131,0.00101215,0.00026555,-0.00006619,0.00017443,0.00004529,-0
 .00037427,0.00025145,0.00012932,0.00039958,-0.00029363,0.00002851,-0.0
 0066020,-0.00044617,0.00330303,0.00327465,-0.00530972,0.00010780,-0.00
 157587,0.00032888,-0.00002639,-0.00015675,0.00002930,-0.00003792,-0.00
 007528,-0.00001655,-0.00003280,-0.00008644,-0.00007844,-0.00012132,0.0
 0008197,-0.00006257,-0.00975202,-0.00420257,0.02533152,-0.07892571,-0.
 01193356,0.01303829,-0.02095392,-0.01949961,-0.02350822,-0.19278783,-0
 .08315249,0.01173292,-0.04537539,-0.03216341,-0.02829170,-0.01963321,-
 0.01100520,0.02046875,-0.00157093,-0.00242755,-0.00081945,0.01371871,0
 .00512254,0.00184496,-0.00009469,0.00159032,0.00040957,-0.00628949,-0.
 00312160,-0.00751022,-0.00161314,-0.00083961,0.00012196,0.00013330,-0.
 00060955,0.00026594,-0.00014067,0.00006728,-0.00002938,0.00476115,0.00
 034530,-0.00822725,-0.00265609,0.00178342,0.00055290,0.00515962,-0.007
 26480,0.00600612,-0.00127109,0.00072651,0.00229401,-0.00101902,0.00076
 179,-0.00105812,0.00003473,0.00042906,0.00009873,0.00087128,-0.0003449
 3,-0.00047261,0.00000795,-0.00018579,-0.00008732,-0.00059762,0.0003687
 0,0.00058969,-0.00019541,0.00013492,0.00004811,-0.00012084,0.00003953,
 -0.00012378,-0.00011654,0.00002295,-0.00001769,-0.11879595,-0.05631383
 ,-0.04430106,-0.03007970,0.00039052,-0.00266313,-0.00369387,-0.0156232
 2,-0.00337277,-0.00002807,0.00025920,0.00003232,0.00004535,-0.00013114
 ,-0.00007866,-0.00012373,0.00001756,0.00012017,-0.00014794,0.00015929,
 0.00018564,0.00010280,-0.00001331,0.00015179,0.00005868,-0.00021029,0.
 00006484,-0.00002193,-0.00008898,0.00004111,-0.00009041,0.00006042,-0.
 00018762,-0.00121866,-0.00536248,0.00023617,0.00030818,0.00005470,0.00
 000702,0.00007023,0.00018314,-0.00055915,-0.00060647,0.00016743,-0.001
 49445,0.00323405,0.00077269,0.00050192,0.00060628,0.00012347,0.0006422
 2,-0.00029611,-0.00060095,-0.00109119,-0.00055326,0.00001521,-0.000170
 87,0.50836300,-0.00311605,0.00711562,0.00483668,0.00019041,-0.00097439
 ,0.00206451,0.00029591,-0.00017471,0.00001353,-0.00000266,-0.00059458,
 0.00053573,0.00008377,0.00083983,-0.00037645,0.00015630,-0.00107800,-0
 .00096504,0.00118581,0.00267325,-0.00643559,0.00018722,-0.00277604,0.0
 0045007,0.00003735,-0.00018281,0.00003862,-0.00002242,-0.00008633,-0.0
 0001087,-0.00001133,-0.00009378,-0.00009763,-0.00011111,0.00006783,-0.
 00006460,-0.00420294,-0.00489699,0.01462642,-0.01193572,-0.06514588,0.
 00752510,-0.01949932,0.00156218,-0.01357004,-0.08315388,-0.09677254,0.
 00677376,-0.03216196,-0.00823596,-0.01633386,-0.01100466,-0.00692586,0
 .01181633,-0.00242744,0.00123164,-0.00047298,0.00512231,0.00780373,0.0
 0106513,0.00159025,-0.00193085,0.00023661,-0.00312153,-0.00268508,-0.0
 0433603,-0.00083968,-0.00064351,0.00007040,-0.00060948,0.00083714,0.00
 015352,0.00006733,-0.00021842,-0.00001696,0.00243624,0.00121123,-0.001
 38187,0.00001978,-0.00001315,0.00006129,-0.00027125,-0.00006880,0.0007
 3054,-0.00070538,-0.00004543,-0.00015562,-0.00005597,-0.00003049,0.000
 09552,0.00006714,0.00005608,0.00014424,-0.00002881,0.00009786,-0.00006
 622,0.00000739,-0.00006145,-0.00002194,-0.00000305,0.00004846,-0.00005
 011,-0.00005916,-0.00001377,0.00000606,-0.00003560,-0.00000573,-0.0000
 1910,-0.00002990,-0.00000772,-0.00000890,-0.05630931,-0.05376822,-0.02
 557466,-0.00039052,0.00509921,-0.00235697,-0.01484455,-0.02128445,-0.0
 0112648,0.00006256,-0.00003889,0.00015645,-0.00001793,-0.00004960,-0.0
 0017121,-0.00003016,0.00001929,-0.00002192,-0.00009100,0.00008813,-0.0
 0003230,0.00018377,-0.00016981,-0.00005057,0.00003997,-0.00011849,0.00
 017693,-0.00004123,-0.00008251,0.00011506,-0.00005277,0.00008624,0.000
 01751,-0.00536334,0.00497394,0.00013603,-0.00036051,-0.00073476,-0.001
 72960,0.00018319,-0.00014124,-0.00032287,0.00058281,0.00017982,0.00087
 092,0.00077063,0.00234370,0.00029064,0.00012357,0.00046343,0.00037056,
 -0.00013270,-0.00021536,0.00043257,-0.00045249,0.00004195,-0.00116145,
 0.23809605,0.23343373,0.00056219,0.00189983,0.00012330,-0.00000779,-0.
 00023133,0.00030619,0.00003193,0.00002046,0.00002696,0.00002588,-0.000
 21882,0.00002921,-0.00005028,0.00024645,0.00037606,0.00010535,0.000029
 41,-0.00076347,-0.00142715,-0.00304791,-0.00095602,0.00003327,-0.00018
 689,0.00033157,-0.00005192,-0.00004232,0.00003771,-0.00001410,-0.00004
 949,0.00003088,0.00000453,0.00002714,-0.00001992,-0.00002638,0.0001919
 0,0.00035670,0.00682769,0.00394271,-0.01825716,-0.02400182,-0.01385619
 ,-0.20251842,-0.04072587,-0.02351390,-0.05154080,0.05098247,0.02943443
 ,-0.11606804,-0.00288185,-0.00166411,-0.01371277,0.03223216,0.01860875
 ,-0.00079954,-0.00710945,-0.00410471,0.00031574,0.00019065,0.00011009,
 -0.00062283,-0.00132444,-0.00076479,0.00297550,0.00300277,0.00173362,-
 0.00544123,-0.00077085,-0.00044498,0.00025049,0.00161947,0.00093501,-0
 .00004521,-0.00013729,-0.00007927,0.00034088,-0.00335467,0.00028658,-0
 .00095521,-0.00014549,0.00012209,0.00033168,0.00192448,-0.00046247,0.0
 0012251,-0.00020521,0.00010834,0.00030641,0.00007781,0.00007642,-0.000
 76407,0.00003377,0.00001730,0.00002681,0.00018840,-0.00016678,0.000376
 21,0.00015300,-0.00011880,0.00035672,-0.00017641,0.00013172,0.00002923
 ,-0.00006258,-0.00002383,0.00003771,0.00002577,-0.00000966,-0.00001991
 ,-0.00004991,0.00001255,0.00003087,-0.03696837,-0.02134352,-0.07305272
 ,0.00266313,-0.00235697,0.00937179,-0.00071083,0.00348414,0.00936867,-
 0.00012590,0.00015869,-0.00020503,0.00000810,-0.00007821,0.00020015,0.
 00005437,-0.00001130,0.00012007,-0.00008342,0.00005067,0.00007836,0.00
 007358,-0.00018908,-0.00020469,0.00000218,-0.00009756,0.00007838,0.000
 01739,0.00005269,0.00012005,-0.00006356,0.00004609,0.00020009,-0.00469
 190,-0.00270776,0.00352478,-0.00079151,0.00008443,-0.00311564,0.000403
 26,0.00023275,-0.00045711,-0.00032254,-0.00072767,-0.00311563,-0.01629
 236,-0.00940539,-0.00271710,0.00092264,0.00053260,-0.00583660,0.000390
 19,-0.00026039,0.00107879,-0.00003038,0.00046777,0.00107892,0.04005462
 ,0.02312449,0.46884878\\0.,-0.00029697,-0.00005200,0.,0.00011506,0.000
 02888,0.,-0.00002105,0.00000089,0.,0.00003141,-0.00003417,0.,-0.000064
 02,-0.00000805,0.,0.00007557,0.00000810,0.,0.00001608,-0.00004865,0.,0
 .00001362,0.00004778,0.,-0.00001491,-0.00000835,0.,-0.00000327,0.00001
 404,0.,-0.00000012,-0.00000068,0.,-0.00000162,0.00002380,0.,0.,-0.0000
 2419,-0.00001393,-0.00000804,-0.00004865,-0.00001180,-0.00000681,0.000
 04778,0.00025718,0.00014848,-0.00005200,-0.00009964,-0.00005753,0.0000
 2888,-0.00006544,-0.00003778,0.00000810,0.00001823,0.00001052,0.000000
 89,0.00005544,0.00003201,-0.00000805,0.00000141,0.00000081,0.00002380,
 -0.00002720,-0.00001570,-0.00003417,0.00001291,0.00000745,-0.00000835,
 0.00000010,0.00000006,-0.00000068,0.00000283,0.00000163,0.00001404,0.0
 0001393,-0.00000804,-0.00004865,0.00001180,-0.00000681,0.00004778,-0.0
 0025718,0.00014848,-0.00005200,0.00009964,-0.00005753,0.00002888,0.000
 06544,-0.00003778,0.00000810,-0.00001823,0.00001052,0.00000089,-0.0000
 5544,0.00003201,-0.00000805,-0.00000141,0.00000081,0.00002380,0.000027
 20,-0.00001570,-0.00003417,-0.00001291,0.00000745,-0.00000835,-0.00000
 010,0.00000006,-0.00000068,-0.00000283,0.00000163,0.00001404,0.,0.,0.0
 0015653,0.00020798,-0.00012008,0.00003218,0.,0.00024015,0.00003218,0.0
 0003899,-0.00002251,-0.00003553,-0.00000404,0.00000233,-0.00000362,-0.
 00001882,0.00001637,0.00000016,-0.00002358,0.00000811,0.00000016,0.,0.
 00004502,-0.00003553,-0.00000477,-0.00002448,0.00000016,0.00000477,-0.
 00002448,0.00000016,0.,-0.00000466,-0.00000362,-0.00003899,-0.00002251
 ,-0.00003553,0.00001882,0.00001637,0.00000016,0.00000404,0.00000233,-0
 .00000362,0.00002358,0.00000811,0.00000016,0.,0.,0.00001137,0.00000476
 ,0.00000275,-0.00001285,-0.00000476,0.00000275,-0.00001285,0.,-0.00000
 550,-0.00001285,-0.00020798,-0.00012008,0.00003218\\\@


 WOMEN HOLD UP HALF THE SKY. -- MAO TSE TUNG
 Job cpu time:       7 days  2 hours 21 minutes 43.4 seconds.
 Elapsed time:       0 days  7 hours  6 minutes  2.3 seconds.
 File lengths (MBytes):  RWF=   9778 Int=      0 D2E=      0 Chk=     67 Scr=      1
 Normal termination of Gaussian 16 at Mon Aug  6 07:08:32 2018.
Calculation isocage_311 started at 05-08-2018 +23:49:50 and finished at 06-08-2018 07:08:33
